       N       E                     dE             d eps       ncg     rms          rms(c)
DAV:   1     0.483470418562E+04    0.48347E+04   -0.10783E+05  5656   0.325E+03
DAV:   2     0.108052094723E+04   -0.37542E+04   -0.35346E+04  5376   0.940E+02
DAV:   3    -0.486952572258E+02   -0.11292E+04   -0.10628E+04  6352   0.319E+02
DAV:   4    -0.208066970676E+03   -0.15937E+03   -0.15336E+03  6072   0.120E+02
DAV:   5    -0.226856839572E+03   -0.18790E+02   -0.18623E+02  8528   0.410E+01    0.295E+01
DAV:   6    -0.197359709530E+03    0.29497E+02   -0.14228E+02  8880   0.899E+01    0.843E+00
DAV:   7    -0.198829865672E+03   -0.14702E+01   -0.23008E+01  6424   0.258E+01    0.751E+00
DAV:   8    -0.198870880195E+03   -0.41015E-01   -0.44668E+00  6736   0.188E+01    0.537E+00
DAV:   9    -0.198873035193E+03   -0.21550E-02   -0.18485E+00  7912   0.145E+01    0.176E+00
DAV:  10    -0.198837195086E+03    0.35840E-01   -0.58227E-01  6472   0.623E+00    0.118E+00
DAV:  11    -0.198834238727E+03    0.29564E-02   -0.27411E-01  7672   0.366E+00    0.692E-01
DAV:  12    -0.198836622378E+03   -0.23837E-02   -0.68438E-02  6616   0.202E+00    0.425E-01
DAV:  13    -0.198838180061E+03   -0.15577E-02   -0.17070E-02  6688   0.141E+00    0.262E-01
DAV:  14    -0.198839054882E+03   -0.87482E-03   -0.62886E-03  6416   0.898E-01    0.951E-02
DAV:  15    -0.198839258664E+03   -0.20378E-03   -0.45306E-03  7392   0.508E-01    0.437E-02
DAV:  16    -0.198839322244E+03   -0.63580E-04   -0.11108E-03  5096   0.289E-01    0.273E-02
DAV:  17    -0.198839359900E+03   -0.37656E-04   -0.43114E-04  4592   0.153E-01
   1 F= -.19883936E+03 E0= -.19883847E+03  d E =-.178616E-02
