       N       E                     dE             d eps       ncg     rms          rms(c)
DAV:   1     0.482917640820E+04    0.48292E+04   -0.10789E+05  5648   0.325E+03
DAV:   2     0.108043794481E+04   -0.37487E+04   -0.35349E+04  5376   0.938E+02
DAV:   3    -0.487458993178E+02   -0.11292E+04   -0.10640E+04  6408   0.318E+02
DAV:   4    -0.206518391462E+03   -0.15777E+03   -0.15212E+03  6112   0.120E+02
DAV:   5    -0.224560426227E+03   -0.18042E+02   -0.17864E+02  8552   0.404E+01    0.291E+01
DAV:   6    -0.196447949098E+03    0.28112E+02   -0.13936E+02  8672   0.935E+01    0.831E+00
DAV:   7    -0.197874799478E+03   -0.14269E+01   -0.22317E+01  6504   0.256E+01    0.740E+00
DAV:   8    -0.197954457852E+03   -0.79658E-01   -0.44582E+00  6600   0.189E+01    0.531E+00
DAV:   9    -0.197988557842E+03   -0.34100E-01   -0.20641E+00  7936   0.151E+01    0.197E+00
DAV:  10    -0.197959209378E+03    0.29348E-01   -0.10237E+00  6888   0.686E+00    0.150E+00
DAV:  11    -0.197931734395E+03    0.27475E-01   -0.43937E-01  7504   0.514E+00    0.741E-01
DAV:  12    -0.197936668973E+03   -0.49346E-02   -0.10308E-01  6944   0.231E+00    0.449E-01
DAV:  13    -0.197939041726E+03   -0.23728E-02   -0.29254E-02  6344   0.156E+00    0.283E-01
DAV:  14    -0.197940281368E+03   -0.12396E-02   -0.78298E-03  6232   0.979E-01    0.148E-01
DAV:  15    -0.197940507907E+03   -0.22654E-03   -0.42208E-03  7008   0.480E-01    0.760E-02
DAV:  16    -0.197940582376E+03   -0.74469E-04   -0.19230E-03  6104   0.386E-01    0.370E-02
DAV:  17    -0.197940592624E+03   -0.10248E-04   -0.38517E-04  4664   0.205E-01
   1 F= -.19794059E+03 E0= -.19793964E+03  d E =-.190718E-02
