unknown system                          
           1
     6.303928    0.000000    0.000000
     0.000000    5.459364    0.000000
     0.000000    0.000000   10.270303
   Ga   N 
  16  15
Direct configuration=     1
   0.24941590  0.17546676  0.23659770
   0.74832068  0.16598123  0.25475977
   0.00633140  0.68269303  0.24849511
   0.50034198  0.66727365  0.24913871
   0.01090071  0.31736112  0.49490751
   0.50617168  0.33995166  0.50599482
   0.24477435  0.82466743  0.50373490
   0.73959914  0.81390977  0.50169504
   0.24323246  0.15803012  0.75471582
   0.74157727  0.15261062  0.74883187
   0.00452764  0.65821032  0.74874910
   0.49342883  0.67433125  0.77741720
   0.99749409  0.33320546  0.00273577
   0.49037835  0.35400824  0.98715687
   0.27341998  0.81276861  0.98910424
   0.75795753  0.84043483  0.99467369
   0.99031023  0.34438808  0.18675886
   0.50779289  0.34354182  0.17810673
   0.25987446  0.83403116  0.17516037
   0.74886955  0.84219328  0.18551741
   0.25821042  0.15756376  0.43494239
   0.75003390  0.15854996  0.44155465
   0.99406074  0.65677243  0.43687709
   0.49264202  0.66987285  0.43815943
   0.00239909  0.31443587  0.68597393
   0.48803219  0.35047853  0.70025491
   0.25416374  0.82334127  0.69148692
   0.74165976  0.82189971  0.69325415
   0.24110997  0.15756962  0.93846990
   0.75326205  0.17121059  0.93487799
   0.00696558  0.65553235  0.94037344
