       N       E                     dE             d eps       ncg     rms          rms(c)
DAV:   1     0.488781361717E+04    0.48878E+04   -0.10807E+05  5648   0.326E+03
DAV:   2     0.110094354898E+04   -0.37869E+04   -0.35737E+04  5376   0.944E+02
DAV:   3    -0.425040361555E+02   -0.11434E+04   -0.10762E+04  6408   0.320E+02
DAV:   4    -0.203253146752E+03   -0.16075E+03   -0.15528E+03  6112   0.121E+02
DAV:   5    -0.221514355010E+03   -0.18261E+02   -0.18094E+02  8552   0.407E+01    0.296E+01
DAV:   6    -0.191086413189E+03    0.30428E+02   -0.12475E+02  8816   0.856E+01    0.812E+00
DAV:   7    -0.192986464447E+03   -0.19001E+01   -0.23133E+01  6264   0.192E+01    0.738E+00
DAV:   8    -0.192884986603E+03    0.10148E+00   -0.32108E+00  6512   0.191E+01    0.391E+00
DAV:   9    -0.193000006504E+03   -0.11502E+00   -0.14348E+00  7936   0.116E+01    0.195E+00
DAV:  10    -0.192915665251E+03    0.84341E-01   -0.47411E-01  7512   0.720E+00    0.652E-01
DAV:  11    -0.192924326296E+03   -0.86610E-02   -0.14476E-01  6960   0.186E+00    0.350E-01
DAV:  12    -0.192926567904E+03   -0.22416E-02   -0.19115E-02  6280   0.122E+00    0.246E-01
DAV:  13    -0.192926487749E+03    0.80155E-04   -0.48889E-03  6560   0.129E+00    0.655E-02
DAV:  14    -0.192926857371E+03   -0.36962E-03   -0.40171E-03  8152   0.421E-01    0.557E-02
DAV:  15    -0.192926959403E+03   -0.10203E-03   -0.14120E-03  6120   0.209E-01    0.453E-02
DAV:  16    -0.192926957543E+03    0.18598E-05   -0.84141E-05  3456   0.120E-01
   1 F= -.19292696E+03 E0= -.19292680E+03  d E =-.321267E-03
