       N       E                     dE             d eps       ncg     rms          rms(c)
DAV:   1     0.517264277998E+04    0.51726E+04   -0.10940E+05  5756   0.328E+03
DAV:   2     0.117617174667E+04   -0.39965E+04   -0.37646E+04  5504   0.946E+02
DAV:   3    -0.352905714735E+02   -0.12115E+04   -0.11295E+04  6568   0.325E+02
DAV:   4    -0.205997426169E+03   -0.17071E+03   -0.16587E+03  6160   0.123E+02
DAV:   5    -0.224807832412E+03   -0.18810E+02   -0.18653E+02  8864   0.413E+01    0.315E+01
DAV:   6    -0.189595716981E+03    0.35212E+02   -0.11961E+02  9760   0.661E+01    0.837E+00
DAV:   7    -0.191664145284E+03   -0.20684E+01   -0.26020E+01  6344   0.172E+01    0.786E+00
DAV:   8    -0.191529865466E+03    0.13428E+00   -0.28563E+00  6768   0.233E+01    0.314E+00
DAV:   9    -0.191594102582E+03   -0.64237E-01   -0.10264E+00  7216   0.106E+01    0.171E+00
DAV:  10    -0.191546419799E+03    0.47683E-01   -0.28167E-01  6992   0.492E+00    0.805E-01
DAV:  11    -0.191547033329E+03   -0.61353E-03   -0.13060E-01  7872   0.242E+00    0.257E-01
DAV:  12    -0.191549796160E+03   -0.27628E-02   -0.30504E-02  8904   0.933E-01    0.210E-01
DAV:  13    -0.191550540183E+03   -0.74402E-03   -0.96580E-03  6152   0.783E-01    0.148E-01
DAV:  14    -0.191550747625E+03   -0.20744E-03   -0.14849E-03  6416   0.399E-01    0.123E-01
DAV:  15    -0.191550685913E+03    0.61712E-04   -0.12742E-03  7760   0.300E-01    0.555E-02
DAV:  16    -0.191550683858E+03    0.20555E-05   -0.30849E-04  8176   0.135E-01    0.191E-02
DAV:  17    -0.191550692151E+03   -0.82936E-05   -0.10255E-04  6824   0.642E-02    0.991E-03
DAV:  18    -0.191550696113E+03   -0.39613E-05   -0.27054E-05  7680   0.436E-02    0.123E-02
DAV:  19    -0.191550696207E+03   -0.94697E-07   -0.66318E-06  6408   0.240E-02    0.105E-02
DAV:  20    -0.191550695035E+03    0.11718E-05   -0.73311E-06  8408   0.192E-02    0.235E-03
DAV:  21    -0.191550695246E+03   -0.21068E-06   -0.25009E-06  6720   0.101E-02    0.136E-03
DAV:  22    -0.191550695209E+03    0.36962E-07   -0.51904E-07  4864   0.497E-03
   1 F= -.19155070E+03 E0= -.19155070E+03  d E =-.101297E-25
