       N       E                     dE             d eps       ncg     rms          rms(c)
DAV:   1     0.517315195603E+04    0.51732E+04   -0.10937E+05  5768   0.328E+03
DAV:   2     0.117317805256E+04   -0.40000E+04   -0.37631E+04  5504   0.947E+02
DAV:   3    -0.344239932294E+02   -0.12076E+04   -0.11252E+04  6608   0.325E+02
DAV:   4    -0.205175475862E+03   -0.17075E+03   -0.16569E+03  6168   0.123E+02
DAV:   5    -0.224127641998E+03   -0.18952E+02   -0.18793E+02  8848   0.414E+01    0.315E+01
DAV:   6    -0.188958049235E+03    0.35170E+02   -0.11778E+02  9832   0.660E+01    0.837E+00
DAV:   7    -0.191028423524E+03   -0.20704E+01   -0.26307E+01  6384   0.166E+01    0.785E+00
DAV:   8    -0.190870494149E+03    0.15793E+00   -0.25776E+00  6784   0.218E+01    0.333E+00
DAV:   9    -0.190936707664E+03   -0.66214E-01   -0.10026E+00  6928   0.909E+00    0.157E+00
DAV:  10    -0.190893632202E+03    0.43075E-01   -0.25318E-01  6776   0.514E+00    0.743E-01
DAV:  11    -0.190893901649E+03   -0.26945E-03   -0.12905E-01  8120   0.252E+00    0.235E-01
DAV:  12    -0.190897839767E+03   -0.39381E-02   -0.34940E-02  7960   0.862E-01    0.255E-01
DAV:  13    -0.190898140793E+03   -0.30103E-03   -0.73242E-03  6168   0.708E-01    0.175E-01
DAV:  14    -0.190898107082E+03    0.33711E-04   -0.16914E-03  7760   0.432E-01    0.112E-01
DAV:  15    -0.190898064826E+03    0.42256E-04   -0.57870E-04  8112   0.202E-01    0.568E-02
DAV:  16    -0.190898062319E+03    0.25079E-05   -0.23515E-04  8280   0.112E-01    0.119E-02
DAV:  17    -0.190898072633E+03   -0.10314E-04   -0.10248E-04  8056   0.789E-02    0.163E-02
DAV:  18    -0.190898076118E+03   -0.34846E-05   -0.29601E-05  6632   0.347E-02    0.183E-02
DAV:  19    -0.190898075428E+03    0.69011E-06   -0.92427E-06  6240   0.245E-02    0.139E-02
DAV:  20    -0.190898074159E+03    0.12687E-05   -0.11251E-05  7688   0.260E-02    0.222E-03
DAV:  21    -0.190898074669E+03   -0.51015E-06   -0.39843E-06  7440   0.115E-02    0.365E-03
DAV:  22    -0.190898074437E+03    0.23242E-06   -0.76235E-07  5688   0.814E-03    0.215E-03
DAV:  23    -0.190898074330E+03    0.10634E-06   -0.21273E-07  3784   0.356E-03    0.110E-03
DAV:  24    -0.190898074297E+03    0.33098E-07   -0.29044E-07  4280   0.267E-03
   1 F= -.19089807E+03 E0= -.19089807E+03  d E =-.151101E-49
