64
Lattice="12.6078568 0.0 0.0 0.0 5.4593644 0.0 0.0 0.0 10.2703028" Properties=species:S:1:pos:R:3:forces:R:3 tag=1 energy=-385.54984139 free_energy=-385.54984139 pbc="T T T"
Ga       1.58120995       0.92958901       2.53025003      -0.06718511      -0.26049992      -0.52749220
Ga       4.73265004       0.85194102       2.54449001      -0.66604784      -0.00480812       0.15520238
Ga       7.81621006       0.84346001       2.58583003       0.83798772      -0.16194394       0.02984400
Ga      10.93499996       0.91012300       2.52615002       1.37124062      -0.32618845       0.07176587
Ga       0.06712990       3.67579999       2.61053001      -0.68462829      -0.48234145      -0.70280754
Ga       3.20272999       3.61493997       2.65820003      -0.75843143      -0.07830833      -1.16767517
Ga       6.30036996       3.57421000       2.59396997       0.50158554      -0.30898813      -0.48942695
Ga       9.44305995       3.62768999       2.49203999       0.01009447      -0.47768157       0.27086708
Ga       0.03287057       1.92435001       5.14307997      -0.42772981      -0.78663195      -0.80446203
Ga       3.10175001       1.82046999       5.13248995       1.38684724       0.05347762       0.63670194
Ga       6.32257996       1.71459998       5.13408996      -0.42797464       0.30291198      -0.13345379
Ga       9.48677996       1.81904002       5.13149004       0.02684659      -0.64126779       0.08162413
Ga       1.56072004       4.63651000       5.18014005      -0.18841385       0.02428845      -0.37317984
Ga       4.71913996       4.48083999       5.13730005       0.42225229       0.12320240       0.34494786
Ga       7.92107994       4.46781002       5.10602996       0.48091368      -0.02514992      -0.19763208
Ga      11.00380003       4.58025998       5.05514995      -0.68008688       0.53091028       0.17090596
Ga       1.59679994       1.06778000       7.74499001      -0.39921174       0.06732793      -0.43764244
Ga       4.72654998       0.79788998       7.70318998       0.11708729       1.17421414       0.43949764
Ga       7.88449005       0.78883699       7.68139999       0.44353679       0.13877445       0.05194684
Ga      11.01670001       0.90146603       7.70565999       0.48058364       0.53559202      -0.45956553
Ga      12.58596943       3.78300001       7.63875996       0.31584714      -0.31702468       0.05949455
Ga       3.15203997       3.73460002       7.80073003      -0.62801459      -0.48632498      -0.70266996
Ga       6.33881005       3.50633001       7.68352995       0.00448742       0.59834235       0.17673107
Ga       9.50708995       3.58412001       7.72106000       0.00117238      -0.30826206      -0.71947531
Ga      12.57913408       1.91934001       0.03359724      -0.07447780       0.23294085      -1.02398418
Ga       3.12434997       1.87367002      10.25270001       0.32998123      -0.78945139       0.56570308
Ga       6.31522000       1.69201000      10.26060003      -0.20911463       0.25008507       0.26988303
Ga       9.47920995       1.80991000       0.00799718      -0.28673855      -0.92762921      -0.53030473
Ga       1.55388002       4.66099001       0.00059722      -0.02194315      -0.72884758       0.31341279
Ga       4.71381995       4.48484001       0.05199721       0.11485936      -0.20814595       0.03325912
Ga       7.89412006       4.40557998      10.21570002       0.01181933       1.18054026       0.28394032
Ga      11.07220005       4.55889001      10.24170001      -0.19362849       0.54772969       0.65543925
N       12.58848407       1.81964000       1.90780005      -0.18490989       0.34980290       0.83687984
N        3.19272994       1.79712002       1.92767997      -0.36818165       0.48223023      -0.02760729
N        6.26728997       1.72932000       1.96931002       0.63853983       0.84195178      -0.82297121
N        9.40020004       1.78540002       1.89191004      -0.52655132       0.01003783       0.44153244
N        1.61298994       4.53512998       1.91481004       0.29030101       0.25756392       0.46892464
N        4.76329003       4.49955999       1.98919004      -0.36717000      -0.32395211      -0.46328748
N        7.85326001       4.48530002       1.87184002      -0.02491874       0.18955004       0.45688188
N       11.04109999       4.48556998       1.93951998       0.22464189       0.89453156      -0.61270801
N        1.61291001       0.94609398       4.41791001      -1.10914827       0.13411244       1.15914367
N        4.71148006       0.83822601       4.44342001      -0.07885828       0.47211040       1.41929075
N        7.91596002       0.83398102       4.56425002       0.03186800       0.18548514      -1.09575815
N       11.06549998       0.95525900       4.43507005       0.04024152      -0.10549310       0.53457622
N       12.57227428       3.74702002       4.50690999       1.36494072      -0.73972031       0.12591867
N        3.07641994       3.65391001       4.54920998       0.65895579      -0.22911438       0.05904392
N        6.37557002       3.57585000       4.49566997      -1.35285347      -0.36500020       0.51455983
N        9.48686998       3.55711002       4.40849995      -0.22218766       1.01163499       0.42680442
N       12.54427626       1.95328000       7.04165000       0.95542591      -0.77280354       0.49110655
N        3.24937994       1.94484998       7.12208999      -0.96681159      -1.29120909      -0.54428489
N        6.32381994       1.70739001       7.06721001      -0.34316552      -0.13599914      -0.03162536
N        9.45767006       1.74316998       7.06134998      -0.37420118       0.81229668      -0.03658118
N        1.60698003       4.69901000       7.08590001      -0.09023428      -0.25380692       0.19848882
N        4.72997995       4.46532000       7.13080999       0.95847687       0.34036019      -1.19075977
N        7.94954004       4.43010999       6.99185002      -0.87909219       0.10812626       1.38282840
N       10.99119999       4.60432000       6.98269004       0.09254012      -0.44284371       0.39174502
N        1.51907994       0.97865200       9.67497997       0.49563350       0.59115345      -0.51234758
N        4.67977004       0.81059201       9.67668998       0.17138566       0.86382366      -0.45821386
N        7.92461998       0.84651998       9.62973005      -0.30870260      -0.52290555      -0.21073823
N       11.04750000       0.93617798       9.59684002       0.13415279      -0.14058998       0.75765408
N        0.02975101       3.76930001       9.54808001      -0.12768517      -1.17614757       0.64282613
N        3.07779004       3.66982002       9.68486997       0.69429240       0.23714487       0.03239820
N        6.28739004       3.55031000       9.65226001      -0.09244320      -0.27822709      -0.43935966
N        9.53452995       3.58381002       9.63531997      -0.47779695       0.55505426      -0.23575596
64
Lattice="12.6078568 0.0 0.0 0.0 5.4593644 0.0 0.0 0.0 10.2703028" Properties=species:S:1:pos:R:3:forces:R:3 tag=2 energy=-386.11213852 free_energy=-386.11213852 pbc="T T T"
Ga       1.63218994       0.84994399       2.59618003      -0.67167056       0.61000642      -0.55740990
Ga       4.73772004       0.87244798       2.60371998      -0.20145431       0.55801239      -0.10113276
Ga       7.88805997       0.87929599       2.56519001      -0.29458762       0.29478970      -0.59642330
Ga      11.05190001       0.92510502       2.50806001      -0.05959076       0.01501696       0.14416719
Ga      12.57368005       3.65777000       2.53707999      -0.34323817      -1.32540972       0.39599880
Ga       3.07514995       3.59061998       2.57494998       1.02584903       0.38391945      -0.18313145
Ga       6.29034999       3.61917000       2.56761000       0.40497911      -0.43742818       0.04581506
Ga       9.44700003       3.65980001       2.58106995      -0.02429463      -0.64619056      -0.00327071
Ga      12.58411696       1.82720002       5.13934004       0.30280289      -1.23924786      -0.16025937
Ga       3.08860997       1.75668998       5.16683005       0.84626982       0.28883323      -0.55278248
Ga       6.34382004       1.78909000       5.14119003      -0.45806804      -0.02942362       0.49555160
Ga       9.46734999       1.88458002       5.08428998       0.33686972      -0.63368982       0.38525834
Ga       1.57616000       4.49604001       5.15159005       0.34531899      -0.36012143       0.10116015
Ga       4.74723998       4.49363003       5.09181000       0.19929200       0.26751697      -0.05812127
Ga       7.85235994       4.56998999       5.14817004       0.59730058       0.40196114       0.41400385
Ga      11.09749998       4.54389003       5.07216004      -1.00291040       0.62198699       0.52618154
Ga       1.64157006       0.85880601       7.73850000      -0.47527868      -0.15800716      -0.07514357
Ga       4.73303004       0.92235699       7.73942002       0.15625694      -0.01523546      -0.71876616
Ga       7.85861003       0.96572198       7.72326997       0.03149570       0.39408647       0.15767361
Ga      11.02370002       0.91925799       7.64800005      -0.16294920      -0.33923109       0.18900537
Ga       0.03081335       3.54585003       7.65285995      -0.52780458       1.47556408      -0.06538292
Ga       3.22062003       3.61643999       7.77139003      -0.52071670       0.34241507      -0.43601927
Ga       6.27118996       3.69672999       7.71720001       0.38321154       0.30000939      -0.30414667
Ga       9.42115997       3.67664002       7.71978998       0.68147819       0.26068312      -0.82617757
Ga      12.57379630       1.83502001      10.21950003       0.77648086      -1.26536969       0.67987083
Ga       3.17703001       1.76931001       0.02319722      -0.60379738      -0.23794426      -0.10037332
Ga       6.30574998       1.87486000      10.24800002      -0.00149085       0.04807291       0.79059091
Ga       9.50460999       1.83141001      10.23689998      -0.94073439       0.05149336       0.40775917
Ga       1.52391997       4.42722002       0.02929717       0.20124376       1.32791684      -0.01787756
Ga       4.74634999       4.54387998       0.00299718      -0.21649371       0.44601897       1.17395032
Ga       7.87800999       4.57670998      10.25110000       0.37553127       0.58509586       0.75282578
Ga      11.02729994       4.51568002      10.26669998      -0.07225993       0.66771514      -0.74450298
N        0.04617716       1.76045001       1.91383005      -0.05710535       0.99987138      -0.26118138
N        3.15945995       1.81523997       1.93315003       0.05670038      -0.80857412       0.27078645
N        6.26491994       1.78938999       1.93353003       0.65733606       0.25799088      -0.20880062
N        9.45677994       1.80014003       1.91360996       0.06595465       0.56242740       0.04491567
N        1.51815995       4.51534001       1.96399000       0.68394971       0.04856175      -0.54083536
N        4.73176005       4.53685001       2.00830996      -0.81653301      -0.36304158      -0.99637506
N        7.88453002       4.50877998       1.93609997      -0.37223278       0.42111098      -0.30747193
N       11.00300006       4.55721999       1.88808004       0.26601376      -0.30376961       0.53943125
N        1.53928996       0.81560098       4.50441000       0.20124259       0.85176623       0.29620873
N        4.74172001       0.91256901       4.52157999      -0.22979820      -0.47618038       0.25955885
N        7.91986001       0.93297699       4.47542001      -0.30211330      -0.44705456       0.42604100
N       11.05880004       0.91235599       4.42312004      -0.42945725       0.11278730       0.71398425
N       12.60576919       3.57400997       4.49468001       0.48853324       0.75141117      -0.53379240
N        3.16923003       3.59276000       4.47406998      -0.51450963      -0.23999341       0.64344714
N        6.39204005       3.56554998       4.49816000      -1.10987347       0.93597126       0.05573764
N        9.44324995       3.70930001       4.53304997       0.47029424      -0.36130744      -0.70339947
N        0.03796982       1.76023000       7.07123001       0.12261271      -0.12938960      -0.30450844
N        3.18540994       1.82501999       7.06803995      -0.47768954      -0.09613839       0.60035041
N        6.25917000       1.90244000       7.11638000       0.61614306      -0.69659050      -0.55933309
N        9.43759003       1.86739001       7.05052005       0.13129066      -0.11520279      -0.11169384
N        1.61898006       4.49455997       7.08253997       0.03973828       0.01133141       0.08132140
N        4.72508999       4.60370997       7.02005997      -0.12531867      -0.51584121       0.69312536
N        7.85959004       4.63091999       7.11529002      -0.14558377      -0.53238153      -0.57897427
N       11.04389995       4.57390998       6.99650000       0.12743975      -0.73541349       0.76145046
N        1.56253998       0.81468403       9.66571000       0.29473255       0.65087497      -0.02400224
N        4.76960001       0.91332000       9.63789001      -0.53246263      -0.10172022       0.23087386
N        7.85317995       0.96424599       9.68263001       0.77932791      -0.25182021      -0.63702535
N       11.02370002       0.90501500       9.59567999       0.11188320      -0.44240517      -0.06313126
N       12.58553144       3.60523000       9.57774999      -0.20706241       0.18194923       0.22799900
N        3.14661998       3.63088001       9.74066000       0.47460179      -0.52040341      -1.03834452
N        6.33096002       3.72493001       9.64142001      -0.72212337      -1.01663379      -0.16495027
N        9.43112005       3.66976002       9.62911003       0.36702831      -0.28600815       0.02969679
64
Lattice="12.6078568 0.0 0.0 0.0 5.4593644 0.0 0.0 0.0 10.2703028" Properties=species:S:1:pos:R:3:forces:R:3 tag=3 energy=-385.68451031 free_energy=-385.68451031 pbc="T T T"
Ga       1.58215995       0.79758901       2.58475001      -0.27353050       0.37684290      -0.29860257
Ga       4.74761998       0.89699399       2.58192003       0.23115227      -0.46672914      -0.45383625
Ga       7.82021003       0.96807803       2.57084001       0.77652368      -0.60478589       0.10515015
Ga      11.04410003       0.92259999       2.54973002       0.11135538      -0.20143565      -0.01369852
Ga       0.02595693       3.58595998       2.49665002      -0.63759595      -0.16687320      -0.67023509
Ga       3.16037994       3.56291998       2.59134005       0.37504664       0.23547633      -0.13298257
Ga       6.30830005       3.64214999       2.59339997       0.06222590       0.16634752      -0.05943393
Ga       9.45901002       3.67153999       2.59032000      -0.40124463       0.21850643      -0.44995155
Ga       0.01359757       1.78763999       5.09484005      -0.00743152      -0.52433469       0.30076545
Ga       3.17803006       1.68662002       5.10693005      -0.20888983       0.41551099       0.41473763
Ga       6.33591995       1.89398000       5.19371996      -0.31461311      -0.92203536      -0.65772000
Ga       9.49801999       1.86530000       5.13191995      -0.65058876      -0.53376678      -0.16149778
Ga       1.49891998       4.41866001       5.14905996       0.39026098       0.15841825      -1.17912365
Ga       4.69701998       4.49666003       5.14519000       0.23284289      -0.01801611      -0.53080088
Ga       7.83777996       4.60778998       5.16263997       0.54759120       0.42772633      -0.50273127
Ga      10.99340006       4.56765999       5.12636998       0.35750069      -0.43688310      -0.42661841
Ga       1.56836002       0.79700999       7.73455004       0.60826395       0.94111674      -0.59831995
Ga       4.73450995       0.89183402       7.69789995       0.14210709       0.21953604      -0.18308302
Ga       7.86406999       1.00362002       7.71924000      -0.02087319      -0.26495938       0.32005221
Ga      11.06229998       0.86523201       7.71823002      -0.31200679       0.05395157      -1.62468569
Ga       0.04490956       3.57777000       7.68034996      -0.75383700      -0.31586751      -0.08931732
Ga       3.14231995       3.61484001       7.72426002       0.00260555      -0.90966703      -0.82559555
Ga       6.25131997       3.75897002       7.72532998       1.21254743      -0.69502418       0.32412450
Ga       9.46043004       3.65955002       7.62269001      -1.11966064      -0.13149441       0.87785953
Ga      12.53960127       1.74186999      10.19340001       1.79426246       0.35899746       0.63515127
Ga       3.14706000       1.77288000       0.04389723       0.10400853       0.51150167      -0.47691786
Ga       6.30836006       1.84057000       0.02769716      -0.31683896       1.00971351      -1.24867832
Ga       9.56942005       1.91112001      10.25340004      -2.06006198      -0.36266909       0.73839403
Ga       1.60311005       4.46532999      10.25849996      -0.34393339       0.01187565      -0.08707444
Ga       4.74901995       4.59425998       0.01339720      -0.17734403      -0.27675768       0.51407772
Ga       7.91235001       4.60530001       0.06119724      -0.44163440       0.25736452      -1.59269327
Ga      11.05070000       4.58119998      10.20579996      -0.44402068      -1.10894428       0.67442295
N        0.04511986       1.72490999       1.82623002      -0.32857878       0.60883823       0.96650942
N        3.14065004       1.73571003       1.98301995       0.11104412       0.37026092      -0.52943360
N        6.29722997       1.85398001       1.89433003      -0.56522886      -0.06742191       0.92987389
N        9.45580006       1.82481002       2.01378998       0.11388114       0.52008317      -1.40357554
N        1.62396004       4.47330001       1.91202998      -0.37060529      -0.17388315      -0.15034188
N        4.74263004       4.51125001       1.95143004      -0.58859224       0.27595043      -0.03552237
N        7.82506998       4.59154001       1.90425998       0.85600533      -0.15982792       1.54435397
N       11.01549999       4.58026997       1.88138000       0.51535568      -0.66678305       0.06005724
N        1.55351994       0.77905801       4.50528996       0.19908048       0.42729352      -0.09073067
N        4.79552000       0.83119898       4.46398003      -0.14386324       0.79534864       1.03129559
N        7.86825000       0.95933398       4.49403997       0.32390520       0.05564899       0.26519914
N       11.03320004       0.90062698       4.47246001       0.06102051       0.03731035       0.30764647
N       12.52857015       3.54945998       4.38381004       0.32195884       0.68600222       1.19057336
N        3.13352004       3.55950002       4.51106002      -0.14530859      -0.26551767       0.16365210
N        6.34294997       3.66506000       4.52638999      -0.94156387      -0.16983533      -0.49909705
N        9.40834005       3.67522997       4.50881000       0.20259332       0.12875654       0.12561198
N        0.05060403       1.76640001       7.04216002      -0.46200920      -0.24758397       0.06654632
N        3.15555996       1.74425000       7.07188998      -0.48987442       0.39470750      -0.18376867
N        6.28514005       1.93527000       7.08225004      -0.01318057      -0.84139010       0.53393377
N        9.47631002       1.81770002       7.07653996       0.29889541      -0.02922934      -0.23762700
N        1.55951006       4.49149001       7.01540003       0.26558639      -0.24072835       0.92940860
N        4.68740006       4.49440001       7.03974999      -0.31444438       1.23662302       0.18576385
N        7.86304005       4.64581003       7.04539003       0.01439363      -0.43653543       0.80094136
N       11.03809996       4.45168999       7.04466002       0.92180404       1.35953871      -0.05878112
N        1.57958000       0.84723003       9.64911001      -0.29299951      -0.01140185      -0.09719066
N        4.72496000       0.90977998       9.61773002       0.12694938       0.60397138       0.38136802
N        7.87411000       0.99965799       9.66886000       1.08634834      -0.30870540      -0.20982581
N       11.01930000       0.88583701       9.58910001      -0.32447938       0.09039735       0.03816010
N       12.55897879       3.54616001       9.58717001       0.82562775       0.95242415       0.41310260
N        3.22367996       3.65515000       9.60499998      -0.89412050      -0.92384194       0.84025518
N        6.29453996       3.76983000       9.64003999       0.72503253      -1.36842506       0.07790112
N        9.43933004       3.69838003       9.58890005       0.44117740      -0.05468708       0.00260274
64
Lattice="12.6078568 0.0 0.0 0.0 5.4593644 0.0 0.0 0.0 10.2703028" Properties=species:S:1:pos:R:3:forces:R:3 tag=4 energy=-385.75235819 free_energy=-385.75235819 pbc="T T T"
Ga       1.57406003       0.95395498       2.50480001      -0.14757142       0.36769081       0.05610738
Ga       4.67407003       0.94564102       2.63788999       0.53248495      -0.13121446      -1.24781375
Ga       7.82307996       0.80919900       2.54878998       0.56435439       1.36564249       0.49956950
Ga      11.08650000       0.83534701       2.56785002      -0.97672041       1.53652923       0.34830794
Ga       0.06877699       3.72938998       2.51262003      -0.38325012      -0.59363460       0.43012147
Ga       3.15413994       3.67067998       2.61985000       0.54358399       0.63106324      -0.26501932
Ga       6.30844996       3.58909998       2.61324003      -0.49153633       0.20311159      -0.28604514
Ga       9.46281999       3.58748003       2.54229001       0.11074424      -0.57847613       0.28041913
Ga      12.51682946       1.87136999       5.09998999       1.07975704      -0.37030092       0.22162770
Ga       3.11071003       1.81572002       5.12106003       0.03635156       0.28490677       0.06577654
Ga       6.29775005       1.74102002       5.16972001       1.20263740       0.73472776       0.10536696
Ga       9.42501999       1.74513000       5.14198998      -0.51601203      -0.15606103      -0.22077815
Ga       1.57112001       4.58445998       5.13758002      -0.34219898      -0.00114979       0.01487800
Ga       4.76615000       4.56997001       5.14896003      -0.31499187      -0.41807937       0.21114918
Ga       7.88402999       4.43732001       5.15322005       0.14129475       0.17011075       0.05833807
Ga      11.02220006       4.50579999       5.12525001       0.10637059      -0.22016449      -0.36491781
Ga       1.59123004       1.02020000       7.67319002       0.26718555      -0.43169202       0.90890425
Ga       4.69545005       0.93379999       7.71923004       0.70536239      -0.45328470      -0.07023361
Ga       7.89844998       0.72680098       7.70714004      -0.50746930       0.55963255      -0.44670749
Ga      11.10480006       0.92999901       7.63915002      -1.17988502      -1.14505151       1.02356411
Ga       0.00281042       3.66546000       7.75292002      -0.13289130       0.66620524      -0.34561849
Ga       3.10871005       3.71893999       7.63494998       0.08791111       0.22782868       0.17081900
Ga       6.23721002       3.55898002       7.76452002       0.48734353      -0.31455131      -0.53934172
Ga       9.48267005       3.54277002       7.69046004      -0.29194963      -0.13747719      -0.06280083
Ga      12.56690144       1.88687999       0.00009716       0.81347332      -0.24628493       0.33750381
Ga       3.24103001       1.89647002      10.25580000      -0.50626689      -0.00482447      -0.47232390
Ga       6.38881004       1.79591999       0.00139717      -0.76807861      -0.42561965      -0.17335999
Ga       9.44168998       1.77999999       0.00619720      -0.05848867      -0.60415416      -0.20909490
Ga       1.60366000       4.61202999      10.24289999       0.18272735       0.54063118      -0.25638947
Ga       4.74381001       4.52232002      10.23800003       0.07339901       0.88455786       0.67697699
Ga       7.93804999       4.45882003      10.26289997      -1.38653646       1.17004493       1.08282121
Ga      11.00650000       4.54742000       0.00169717      -0.06877552       0.54572819      -0.15722095
N       12.57268907       1.90447001       1.96910996       0.33388157      -0.79598614      -0.63548986
N        3.12405999       1.92903999       1.89477997       0.56033281      -0.94966740       0.72637885
N        6.30866996       1.79486000       1.88689002      -0.41762606      -0.01404298       1.28590677
N        9.43886998       1.72680002       1.91473004       0.16101387       0.39942758       0.53428909
N        1.64586001       4.59791999       1.88710005      -0.44646140       0.19624741       0.24463656
N        4.73683005       4.58813998       1.92311995      -0.03033166      -0.32100805       0.55992638
N        7.87392000       4.51167999       2.01881001       0.24246882      -1.13968158      -1.68513626
N       11.04040001       4.54531001       1.93152999      -0.10342905      -0.60032667      -0.25329048
N        1.51760003       0.91157399       4.44146999       0.34015757       0.54555333       0.56229528
N        4.75210005       0.93415299       4.56208001      -1.41523743      -0.45192049      -0.83609539
N        7.86233994       0.77549502       4.48579004      -0.08384831       0.88339085       0.40343958
N       11.00510002       0.86545901       4.54274996       0.20723078       0.01587928      -0.70317508
N        0.03152128       3.65688001       4.44616002      -0.33392146       0.19126077       0.31905730
N        3.15469998       3.67839002       4.55254002       0.04107615      -0.28345001      -0.34979391
N        6.28600999       3.59706001       4.56395002       0.02843833      -0.58426261      -0.72583818
N        9.46057995       3.55141001       4.47840004       0.15873579       0.12379993       0.29256970
N       12.60662300       1.88314999       7.11317002       0.41657633       0.12111426      -1.35544200
N        3.18957999       1.91835001       7.06006999      -0.67662564      -0.90798681      -0.33793922
N        6.33752998       1.72262000       7.06965002      -0.21462419       0.27704677       0.60475186
N        9.43231994       1.67933002       7.07842004       0.48181083       0.82218628      -0.14700699
N        1.51738999       4.64759999       7.07308000       0.31443517      -0.23076877      -0.17059175
N        4.72335994       4.54217999       7.06911001       0.16671532       0.47638054       0.19410107
N        7.85117001       4.36333001       7.08904005       0.32450794       0.64530314      -0.08705601
N       11.03520002       4.51264002       7.02557995      -0.13105890       0.11020037       0.90139435
N        1.60822001       1.02101000       9.65809005      -0.21607116      -0.25806441      -0.37651035
N        4.79504002       0.92007198       9.64332002      -0.56710875       0.01594268      -0.07398635
N        7.86372995       0.82535102       9.59477004       0.90503065      -0.06172346       0.84321443
N       11.04759998       0.93515899       9.64197995      -0.21686440      -0.46371516      -0.66278190
N        0.00188210       3.72790001       9.66633002       0.00580691      -0.51411459      -0.13438708
N        3.15681003       3.74233998       9.53754997       0.00447832      -0.88521626       0.80242199
N        6.32656001       3.60196001       9.69689998      -0.12195292       0.11249440      -0.61532322
N        9.42835994       3.58676998       9.64731003       1.42010558      -0.13068276      -0.49912491
64
Lattice="12.6078568 0.0 0.0 0.0 5.4593644 0.0 0.0 0.0 10.2703028" Properties=species:S:1:pos:R:3:forces:R:3 tag=5 energy=-385.89995816 free_energy=-385.89995816 pbc="T T T"
Ga       1.62114004       0.94066301       2.54498001       0.29869744      -0.28395871       0.15171145
Ga       4.71725005       0.95714701       2.54750999       0.33158337      -0.07738275       0.14429457
Ga       7.95262001       0.79290799       2.52460999      -0.29474864       0.88135924       0.56617273
Ga      11.05289994       0.89163502       2.63897998      -0.12731460      -0.40673881      -1.20877403
Ga       0.02761814       3.61530002       2.59039005      -0.04965431       0.21026558      -0.95824091
Ga       3.11201003       3.72028998       2.60333001      -0.04699821      -0.91527590      -0.69028527
Ga       6.26547002       3.66962998       2.58513997       0.37210018      -0.57474270      -0.05612379
Ga       9.48233998       3.62529000       2.52670996       0.37344379      -0.88074783      -0.67666639
Ga      12.59598965       1.75866998       5.13522001      -0.13952204       0.26482243       0.26004073
Ga       3.12519003       1.81099002       5.12318999       0.72512948      -0.75862564       0.05243280
Ga       6.30288006       1.80125002       5.15489000      -0.15824146      -0.33681899      -1.31785088
Ga       9.40518002       1.79820998       5.18088999       0.13739185      -0.23692058      -0.97160698
Ga       1.50996005       4.49704000       5.09289003       1.25899478       0.53552556       0.66146058
Ga       4.70161000       4.51692999       5.20881001       0.34346797       0.50895919      -1.42836917
Ga       7.89258001       4.50946000       5.12294997      -0.69529547      -0.13678096      -0.45043283
Ga      10.96829996       4.48430003       5.10509002       0.36556690       0.15513149       0.32343211
Ga       1.57483995       0.88378598       7.73809001      -0.49079271      -0.00033172      -0.70869746
Ga       4.68129004       0.86278698       7.74586997       0.37743960       0.68183506      -0.59847764
Ga       7.84004004       0.92258798       7.70880003       0.29473949      -0.35630981      -1.28517766
Ga      11.05159994       0.89885498       7.62679002      -0.23129916      -0.01296660       0.81744028
Ga       0.02171678       3.69939001       7.67371996      -0.26346776      -1.02470334      -0.44243586