64
Lattice="6.43258 0.0 0.0 0.0 11.1415596 0.0 0.0 0.0 10.4799004" Properties=species:S:1:pos:R:3:forces:R:3 tag=1 energy=-387.383039 free_energy=-387.383039 pbc="T T T"
Ga       1.56302997       0.94962699       2.56888003       0.88100635      -0.79355461       0.70861694
Ga       4.81349003       0.88614896       2.68510999       0.01579388      -0.27125601      -1.38123052
Ga       6.40092103       3.67855002       2.60299001       0.45975929       0.03006429       0.02331384
Ga       3.24326001       3.77458001       2.64641002      -0.68532362      -0.76632998      -0.07351673
Ga       1.61269997       6.47004995       2.54794004      -0.12931792       0.50221545       0.97045679
Ga       4.80778002       6.51033994       2.57717005       0.33728618      -0.16988317       0.48478425
Ga       0.01426753       9.25559004       2.61007002       0.03469491       0.53719001       0.58997221
Ga       3.23534999       9.27018002       2.67880004      -0.11403379       0.21445119      -0.82597360
Ga       6.38444102       1.81532996       5.26100998       0.96560240       0.61844608      -0.42229972
Ga       3.22902998       1.90313002       5.24310004      -0.72293536      -0.39811710      -0.56047885
Ga       1.55558001       4.68343001       5.22026004      -0.19807267       0.42439742      -0.07348736
Ga       4.80643002       4.69662005       5.22799997       0.15319059      -1.23745326       0.47609226
Ga       6.41612533       7.38768005       5.31517000       0.29941100       0.10624331      -1.14003694
Ga       3.26600001       7.37780005       5.18578001      -0.48315453       0.04967342       0.73831730
Ga       1.57529002      10.14399995       5.22744998       0.50597388       0.50395198      -0.25270611
Ga       4.86190999      10.16909999       5.29541004      -0.12449111       0.01624592      -0.79468721
Ga       1.64677001       0.85787602       7.80943000       0.08321525       0.27850702       0.21333201
Ga       4.89249999       0.98608797       7.84222999      -0.54730714      -0.35315116      -0.13775317
Ga       0.05456172       3.75368000       7.90171998      -0.46533126      -0.06767166      -1.17496662
Ga       3.23946002       3.80220996       7.87234000      -0.07107979      -0.75432899      -1.07567899
Ga       1.63519001       6.49956004       7.91561004      -0.62046439       0.13673368      -0.82204289
Ga       4.81712997       6.50651003       7.95355001       0.42317518      -0.46436917      -1.63162313
Ga       6.35017009       9.19656996       7.83792998       0.93417621       0.52782754       0.27446511
Ga       3.21354998       9.21579996       7.81770000      -0.40739258       0.38473944       0.10035385
Ga       6.38480748       1.79173002       0.01139962       0.37685388       0.16668785      -0.80184969
Ga       3.21227002       1.85012004       0.03089957      -0.32797125      -0.69272762      -0.54222896
Ga       1.58735001       4.63750004      10.43390003      -0.23247502      -0.00775979       0.50503896
Ga       4.76886002       4.66564997      10.44790002       0.37276374      -0.22425106       0.15087082
Ga       0.04046080       7.40044995       0.04759960      -0.58887904       0.42286900       0.12275775
Ga       3.22228002       7.44894002      10.43359999       0.26739005       1.04261847       0.51178199
Ga       1.64646999      10.16270005      10.47970002      -0.05373848       0.17855142       0.04002926
Ga       4.92616998      10.19090001      10.43530004      -0.69585113      -0.37923229       0.29042283
N        6.42532231       1.79516998       1.93462001      -0.77136900       0.82697752       0.36045902
N        3.22983000       1.86186001       1.99646001      -0.03706574       0.19232445      -0.00429996
N        1.60530000       4.62066002       1.93215995      -0.19828308      -0.04140671       0.07010363
N        4.81973002       4.63531997       1.95501997       0.16319931       0.30976562      -0.36230560
N        6.41471962       7.45540001       2.02225995       0.35496160      -1.15689389      -0.93780233
N        3.23399002       7.43263000       1.92142005      -0.39284124      -0.12349258       0.37431833
N        1.59950997      10.18620006       1.97592999       0.52902459       0.10308447      -0.00662269
N        4.85996999      10.15590003       1.95144004      -0.42260337       0.60010924       0.15164080
N        1.55885002       0.87317896       4.55596001       0.53084653       0.55627007       0.39903828
N        4.83009001       0.89682703       4.56996996      -0.49085633       0.01418623       1.04526086
N        6.41054050       3.71535995       4.57514001      -0.30037417      -0.31085461       0.00234152
N        3.14815997       3.81292001       4.61929005       0.89427260      -0.98538641      -0.48480314
N        1.59335000       6.58117999       4.59857998       0.30463305      -1.11561561      -0.67404701
N        4.86683998       6.44480005       4.58134998      -0.36993942       1.19964365      -0.68563548
N        0.03927257       9.19693998       4.59500005      -1.07340223       0.53149583      -0.04097987
N        3.23074999       9.25161005       4.62403996       0.39330486       0.10075666       0.03730977
N        0.05460251       1.90623996       7.20765001       0.06759456      -0.46961523       0.07641438
N        3.28007000       1.90513004       7.17794997      -0.49906213      -0.25885419       0.54902761
N        1.61345998       4.70422996       7.16629004       0.02029991      -0.51303137       0.94388743
N        4.85316001       4.69210003       7.19412004       0.09771271      -0.45102402       0.62238107
N        6.40716719       7.36789999       7.20596998       0.21927784       0.10832788       0.96046547
N        3.23530001       7.31372004       7.23158003      -0.03389591       1.28823605      -0.49751999
N        1.55209002      10.10789996       7.15973004       0.41569025       0.51283175       0.62593301
N        4.80931001      10.22230005       7.23089998       0.02881115      -0.07376244      -0.05396692
N        1.56258998       0.84241700       9.81397997       0.49619721       0.97551402       0.03396015
N        4.80401999       0.87052905       9.77326995       0.07133449       0.78582268       0.70787118
N        6.39855191       3.68998003       9.80952999      -0.05968665       0.29250120       0.78132227
N        3.16232998       3.69665004       9.79952997       0.49193632       0.22899050       0.40312813
N        1.62891998       6.55852998       9.85957005      -0.17733884      -1.25262359      -0.16813355
N        4.82425000       6.57120005       9.82017002       0.32420517      -1.03284966       1.21113684
N        0.07926521       9.19205997       9.81138996      -0.61491213       0.59722397      -0.03063395
N        3.24699000       9.34288003       9.78840995       0.39585436      -0.99997911       0.10070504
64
Lattice="6.43258 0.0 0.0 0.0 11.1415596 0.0 0.0 0.0 10.4799004" Properties=species:S:1:pos:R:3:forces:R:3 tag=2 energy=-387.56265907 free_energy=-387.56265907 pbc="T T T"
Ga       1.57872997       0.89323198       2.64011998       0.11256548       0.32530959       0.50862387
Ga       4.78460003       0.95437095       2.63267999       0.04945598      -0.63217168      -0.38304741
Ga       0.00254872       3.66697004       2.54773998      -0.13106203       0.13823661       0.58740285
Ga       3.18077000       3.65489002       2.62754002      -0.22662647       0.71044140      -0.16286437
Ga       1.64027998       6.51631004       2.60246004      -0.07954848      -0.03554522       0.34548800
Ga       4.87657003       6.46683995       2.61791999      -0.17430379       0.46589395      -0.65389680
Ga       0.03934378       9.32215996       2.64612004      -0.99829328      -0.11996381       0.13979860
Ga       3.17957997       9.31573997       2.55776997       0.43908823      -0.35362244       0.16226703
Ga       6.37037393       1.88549995       5.23310001       0.41028313      -1.25178055      -0.11532745
Ga       3.20159998       1.86938000       5.26117996      -0.54336469      -0.65096329       0.04169543
Ga       1.57730998       4.57733996       5.30804996       0.35167560       1.17687252      -0.39718993
Ga       4.81877002       4.63477002       5.18300001      -0.43020481       0.00585598       0.09064076
Ga       6.43232077       7.38193000       5.19248998       0.51711484       0.49216272       0.62419820
Ga       3.26646001       7.49025003       5.27680004      -0.62209274      -0.82313245      -0.41100995
Ga       1.67943999      10.19259999       5.28914998      -0.76847852      -0.69074781      -0.03130251
Ga       4.81579000      10.15929999       5.23754003       0.45022058       0.27273808      -0.44419237
Ga       1.65942000       0.89878304       7.86003995      -0.21401622       0.20991718      -0.09482190
Ga       4.84514000       0.91629701       7.80788002       0.18645737       0.33948672       0.36526896
Ga       0.04993773       3.71552997       7.79702997      -0.19056566      -0.13938478       0.74025304
Ga       3.31050999       3.74064995       7.91918002      -0.53398987      -0.13298334      -0.07689878
Ga       1.58981002       6.48822005       7.92641995       0.31789468       0.42433534      -0.25633907
Ga       4.84908002       6.49867005       7.86014999      -0.19566431      -0.14071524      -0.26523062
Ga       6.36886240       9.25742995       7.87954996       0.70520973       0.26098868      -0.23780604
Ga       3.19297003       9.29207998       7.83238003      -0.20662483      -0.49339587       0.49117622
Ga       6.41812130       1.83862005      10.46499997      -0.47779926       0.11711970      -0.20835762
Ga       3.15386998       1.83171997       0.01279963       0.37327798      -0.16680547      -0.51489805
Ga       1.48378998       4.61263999       0.02559957       1.38024392       0.46673437      -0.63310679
Ga       4.78968003       4.63136004       0.00569960      -0.41159535      -0.19808955       0.14600779
Ga       0.03782878       7.42926002      10.44529996      -0.42218128      -0.03584413       0.50273346
Ga       3.21836000       7.41751002      10.46240001       0.66407475      -0.11226766       0.40458020
Ga       1.71434001      10.17579997      10.46140002      -1.04500407       0.39873143       0.16924314
Ga       4.88567001      10.21079995      10.47509998       0.00857911      -0.09405713      -0.28995100
N        6.41319819       1.80959997       1.95969998       0.03627105       0.26672370       0.07772840
N        3.18088997       1.84797005       1.96834003      -0.19434802      -0.34710584       0.13321691
N        1.57246001       4.61519999       1.92573001       0.28571001       0.33388299       1.07927949
N        4.79956999       4.57249996       2.00632998       0.07991062       0.60099780      -0.41432491
N        0.01874589       7.51511999       1.93878996       0.08740198      -1.19396629       0.43453640
N        3.27817000       7.43690001       1.96456003      -0.44122861      -0.19926026      -0.09879315
N        1.55998003      10.24849998       1.95215005       0.84065800      -0.43167911      -0.28081097
N        4.79529001      10.23310000       1.95163999       0.41794758       0.04810070       0.20954689
N        1.57008001       0.79779795       4.66250999       0.02246161       2.53874201      -0.92295833
N        4.73365997       0.87705098       4.56632002       0.82940547       0.54728017       0.65159621
N        6.40479872       3.70111000       4.54602999       0.32533460      -0.04135214       0.19046316
N        3.16744002       3.69028999       4.59394001       0.22163475       0.10281719      -0.02433512
N        1.65122997       6.52119004       4.64782000      -0.10604182      -0.84331569      -0.64696868
N        4.82579002       6.48266999       4.54809998      -0.00468997       0.16883614       0.63780544
N        0.07612868       9.28260999       4.64245995      -1.01610806      -0.26567784      -0.46052236
N        3.19901003       9.29393995       4.51456996       0.68917652      -0.32639962       0.74893016
N        0.05910538       1.85065004       7.20769004      -0.35318165      -0.03591346      -0.20814689
N        3.27054000       1.91018998       7.24632996      -0.45174276      -0.56545585      -0.39715259
N        1.67424002       4.66685003       7.30343997      -0.23654394      -0.52980397      -0.84054150
N        4.87555999       4.62984000       7.13998004      -0.08330011       0.30702321       0.56355367
N        0.01968691       7.42971002       7.23569003      -0.38377337      -0.29188378      -0.43117639
N        3.19742003       7.41793997       7.24971004       0.48863984       0.07020481      -0.24185486
N        1.58325999      10.17310003       7.21775002       0.07298347       0.37097956       0.36957363
N        4.77220001      10.20239999       7.21091995       0.52422292      -0.00970081      -0.26047648
N        1.53256997       0.87809305       9.83576998       1.05244888       0.24003975      -0.19656884
N        4.81552999       0.93489205       9.76598999      -0.27156165      -0.24355907       0.72163703
N        6.39589062       3.73450995       9.80537995      -0.52751992      -0.74651472      -0.13443923
N        3.13360999       3.68233001       9.87809998       0.59086736       0.43067666      -0.16256517
N        1.63990001       6.49753996       9.90374995      -0.44800180      -0.57090736      -0.66320299
N        4.83996003       6.47635005       9.81646999      -0.00628929       0.09286691       0.27199434
N        0.12081299       9.25323003       9.82695000      -1.26873157       0.43710196      -0.07964780
N        3.23259003       9.24479999       9.79776001       0.93326213       0.35286838       0.23148764
64
Lattice="6.43258 0.0 0.0 0.0 11.1415596 0.0 0.0 0.0 10.4799004" Properties=species:S:1:pos:R:3:forces:R:3 tag=3 energy=-387.22182776 free_energy=-387.22182776 pbc="T T T"
Ga       1.59675001       0.93530295       2.55272998       0.30842795       0.25331648       0.94672348
Ga       4.80783000       0.98923000       2.61753999       0.26018779      -0.81404484      -0.23151379
Ga       0.02766479       3.69873006       2.61984997      -0.82132356       0.39699187       0.03362130
Ga       3.14832999       3.64740000       2.60682995       0.85030159       1.15915859       0.22971609
Ga       1.70453998       6.58794002       2.63193005      -0.50262291      -1.16603514      -0.16591198
Ga       4.89613003       6.42711004       2.65805005      -0.06653619      -0.02212744      -0.66182568
Ga       0.01485251       9.33890996       2.60850003      -0.30765107       0.08950102      -0.02678831
Ga       3.20896998       9.25408002       2.61829004       0.43934399       0.44219064      -0.46354551
Ga       6.40297669       1.83755002       5.18825998      -0.42691803       0.23421649       1.00819291
Ga       3.19088002       1.78835000       5.33014997       0.22140339       0.40000886      -0.76700294
Ga       1.64025001       4.56058005       5.16703996      -0.40982420       0.73593736       0.10225935
Ga       4.79293999       4.56928996       5.26982997       0.22589104      -0.02329066       0.21766431
Ga       6.42492562       7.43073995       5.28123000       0.38212977       0.06520553      -0.80665276
Ga       3.23582002       7.40590998       5.20767997      -0.23129472      -0.11199582      -0.03967720
Ga       1.65401000      10.22849999       5.20753996      -0.18388893       0.47753168       0.50968399
Ga       4.84136002      10.20369999       5.31533003       0.47110515       0.03313466      -0.97943288
Ga       1.61720998       0.93212204       7.88072004      -0.27875698       0.07552256      -0.51469482
Ga       4.81441999       0.86009798       7.93306997       0.38332302       0.42606726       0.14427080
Ga       0.07477701       3.66624996       7.87146996      -0.88748589      -0.08775354      -0.14140964
Ga       3.26035999       3.64986006       7.80983997      -0.35534108       0.64067437       0.87885775
Ga       1.60820000       6.47318997       7.84160004      -0.46147789      -0.25132428      -0.61065739
Ga       4.81168003       6.53640005       7.78846003      -0.21447991      -0.69341618       0.62275283
Ga       6.37522371       9.33211996       7.94647995       0.93345398      -0.25507898      -0.57904962
Ga       3.17315003       9.28691999       7.85618995      -0.60627621      -0.08110677      -0.28374991
Ga       0.03883818       1.87365001      10.43469996      -1.17357917       0.57333425       0.33980874
Ga       3.15837002       1.83764996       0.02229955       0.52209370       0.54975951      -0.14701207
Ga       1.53421999       4.67833998       0.00079962       0.53690583      -1.44484080       0.40742794
Ga       4.72251000       4.63400995      10.47090005       0.29725868      -0.26611386      -0.11426243
Ga       0.05442818       7.42719003       0.04339957      -1.12507918      -0.20096121      -0.07980095
Ga       3.18327999       7.32322000      10.43000004       0.82358975       1.32087342       0.23669841
Ga       1.69528002      10.27629995      10.42739998      -0.42057090      -1.31473085       0.47498580
Ga       4.87638998      10.23669995      10.45380000      -0.70352471      -0.71213168       0.79810571
N        0.05215832       1.89659003       1.91411000      -0.77774513      -0.57782202       0.50617764
N        3.20562002       1.89273995       1.95677001      -0.05463253      -1.12264077       0.02895087
N        1.59995999       4.62430999       2.00173999       0.03568088       0.99314873      -0.37827256
N        4.79088003       4.57770998       1.95360005       0.23853669       0.34939412       0.32227258
N        0.05851197       7.45753997       2.03976003      -0.15427080      -0.28100936      -0.69397755
N        3.32385998       7.39500005       1.93215000      -0.51880984       0.28337657       0.16529912
N        1.63379999      10.26919999       1.91201004       0.02056288      -0.82582810       0.49524864
N        4.78646001      10.20669997       1.95090996       0.53373709       0.49873381       0.29365955
N        1.56439001       1.00791996       4.59536999       0.79597714      -1.22784502      -0.56306777
N        4.78977999       0.90625702       4.61040005       0.03775232      -0.05589792      -0.19834244
N        6.38862399       3.70824996       4.61538000       0.57886693      -0.35515456      -0.55869122
N        3.24153003       3.62489004       4.57053996      -0.35648244       0.09358685       0.38454337
N        1.62073002       6.50737005       4.55684001      -0.07123306      -0.36484530       0.75643727
N        4.82965999       6.37924000       4.59401001       0.12808603       1.37715740       0.53409388
N        0.08168592       9.34133002       4.59094998      -1.16092108      -0.77826605       0.03675770
N        3.25882003       9.28198996       4.58918999      -0.02079164      -0.11823541       0.03280501
N        6.38729682       1.77146998       7.22868998       0.60787117       0.66301756      -0.00661974
N        3.28536999       1.80324003       7.28290995      -1.01566605      -0.05766989      -0.55629326
N        1.61881002       4.57402000       7.13269001       0.42486528       0.52334421       0.56999764
N        4.85789001       4.58037002       7.26034997      -0.02994911       0.78881972      -0.67639630
N        6.41283577       7.50811998       7.23524998       0.19075037      -0.79869728      -0.05213618
N        3.13768998       7.45585002       7.16161998       0.76974364      -0.44059433       0.30048033
N        1.56478002      10.26869996       7.20145000       0.24314225      -0.72673724       0.17607669
N        4.77619001      10.17559998       7.25858998       0.24027085       0.24127240      -0.11859073
N        1.58792000       0.92732805       9.83469003       0.13346611       0.29746742      -0.37832149
N        4.77078001       0.93745896       9.92413996       0.84742657      -0.00279396      -0.90288997
N        6.37011682       3.77280995       9.84294997       0.44264649      -0.85821776      -0.27060065
N        3.15589000       3.64363003       9.81235998      -0.31700024       0.79470972      -0.05848420
N        1.58502000       6.44049997       9.79805995      -0.08590189       0.82605462       0.00815013
N        4.79010998       6.46504003       9.78977003       0.61676996       0.48327505       0.09584782
N        0.04525790       9.27950996       9.89760003       0.08625697       0.23380831      -0.42449426
N        3.23325001       9.27373006       9.77432004       0.11221010      -0.28338403       0.79259853
64
Lattice="6.43258 0.0 0.0 0.0 11.1415596 0.0 0.0 0.0 10.4799004" Properties=species:S:1:pos:R:3:forces:R:3 tag=4 energy=-387.67739899 free_energy=-387.67739899 pbc="T T T"
Ga       1.55165003       0.91689699       2.55006002       0.67743909       0.58971675       0.48345618
Ga       4.81833003       0.96556299       2.57349003       0.02385954      -0.30032784       0.09438422
Ga       6.41778667       3.78662003       2.61023005       0.09982031      -0.85654282       0.03665156
Ga       3.20170001       3.78780003       2.70490998      -0.35199041      -0.91611936      -1.17566956
Ga       1.66489997       6.50371996       2.61601003      -0.32877863      -0.36938725       0.22741568
Ga       4.89672002       6.46708005       2.63479997       0.00849606      -0.28622702      -0.04859015
Ga       0.03387287       9.25547004       2.61670998      -0.54284168       0.46259619      -0.04263161
Ga       3.23543998       9.18773003       2.61356999      -0.10760147       1.33456759      -0.27630842
Ga       6.41669912       1.84321004       5.22913002       0.06989060      -0.59228282      -0.06144122
Ga       3.20471998       1.83463004       5.22150998      -0.51743025      -0.24172768       0.20338698
Ga       1.61376997       4.61197996       5.31243003      -0.38331518       0.09007993      -0.49316131
Ga       4.83724002       4.58008001       5.24548002       0.00211589      -0.07254181       0.10879867
Ga       6.39526100       7.45607998       5.27681996       0.61319999      -0.66077330      -0.72173516
Ga       3.23851000       7.37209000       5.20014995      -0.39511430       0.36249014       0.01276234
Ga       1.59681999      10.18099996       5.23709998      -0.23574729       0.50067426      -0.16176984
Ga       4.79998997      10.18599995       5.25254997       0.12332946       0.64726602      -1.07761369
Ga       1.63591001       0.93060400       7.92838001      -0.03870151      -0.04216469      -0.64649429
Ga       4.82667997       0.86700497       7.88793996       0.23849737       1.03290209      -0.43044676
Ga       0.00298961       3.72990002       7.85577002       0.12939084      -0.88251603      -0.22183666
Ga       3.24681002       3.71560996       7.88919996      -0.36891078      -0.41649539      -0.39179214
Ga       1.66652999       6.50948004       7.88527995      -0.88488644      -0.00016219      -1.11857963
Ga       4.81199999       6.43507002       7.80674997       0.50290312       0.50470952       0.29130712
Ga       6.32476198       9.30847000       7.87885001       1.67961486      -0.67840826      -0.33654154
Ga       3.22839998       9.25604996       7.80308001      -0.99020433       0.01788589       0.54897286
Ga       6.41920853       1.89793003      10.41589996      -0.15322912       0.13931575       0.91100619
Ga       3.24034000       1.82906004       0.00069964      -0.33018625       0.36522516       0.46020147
Ga       1.58469998       4.64384003       0.00909959       0.29535164      -0.09759356      -0.85622786
Ga       4.78709998       4.63747999      10.44510000       0.22921836      -0.26381681       0.05390938
Ga       6.42474595       7.41744005       0.00939963      -0.25037936       0.07169833      -0.66754703
Ga       3.18831001       7.39468999       0.03209962       0.80148735       0.77775588      -1.12442338
Ga       1.63890997      10.23369998      10.45929995       0.05358021      -0.46878589      -0.00065642
Ga       4.91565998      10.18389999       0.01559965      -1.21728988       0.28372604       0.60527029
N        0.00428448       1.94155001       1.92744997      -0.29612365      -0.56921865       0.04240568
N        3.22097002       1.91860999       1.97642003      -0.43166903      -0.36068159      -0.03225884
N        1.57969003       4.67259005       1.91900998       0.39172437       0.05529332       0.85422245
N        4.78644000       4.60039998       1.93164005       0.33921562       0.94430828       0.38297394
N        0.06623312       7.42668999       1.95846995      -0.36668003      -0.35671121       0.14152012
N        3.29179003       7.35966995       1.94880004      -0.30903503       0.27019414       0.48215003
N        1.58107001      10.20360005       1.96009004       0.77438114      -0.44810536      -0.25410466
N        4.83046001      10.16579997       1.99708000       0.06538944       0.37283707      -0.33318995
N        1.56816999       0.89703003       4.54472000       0.25555019       0.10398162       0.16032026
N        4.77266997       0.92519600       4.54529996       0.60642331      -0.25397985       0.59498266
N        6.42161811       3.67498995       4.58459005       0.37424064       0.53454791       0.00242096
N        3.20434000       3.71442996       4.62137995      -0.04657193      -0.15077044       0.23092858
N        1.63399001       6.43984997       4.58049000      -0.55124691       0.55418825       0.16246783
N        4.82630997       6.40691998       4.62911998       0.41294744       0.80931414      -0.75511012
N        6.39370187       9.27550000       4.55888998       0.31947085      -0.21129511       0.49516612
N        3.21225002       9.28467998       4.55931001      -0.14418934      -0.84363182       0.44813278
N        0.09219849       1.84537997       7.19954004      -1.38804926      -0.01011119       0.36834734
N        3.21397003       1.87328000       7.24670996       0.56109853      -0.57454925      -0.33180244
N        1.60237999       4.59883003       7.25786005       0.53638316       0.94448367      -0.20577546
N        4.84400001       4.58940995       7.20002997      -0.28300902       0.30152185      -0.07086632
N        6.39504860       7.44556001       7.18733001       0.55634655      -0.30943245       0.79585461
N        3.25294998       7.39296004       7.15467003      -0.40421754       0.16980347       0.28355768
N        1.56443999      10.24219998       7.20486005       0.29747303      -0.73517143       0.31298272
N        4.79945999      10.17359995       7.17965002      -0.28850855       0.73892031       0.06429151
N        1.56129002       0.96031097       9.89197002       0.92913527      -0.45479035      -0.52937600
N        4.84701001       0.89792202       9.87776001      -0.17345494       0.05953616      -0.67150723
N        6.43216047       3.72507996       9.77542997      -0.26008711       0.35982209       0.69724640
N        3.20652000       3.67469002       9.80843002      -0.13124806       0.45925056       0.52779480
N        1.60883998       6.55026996       9.78450996      -0.15501936      -0.67074381       0.97176731
N        4.80501002       6.46963002       9.77922002       0.08613835       0.34043997       0.47875773
N        6.42280209       9.28924000       9.81195001       0.90610551      -0.45886940       0.16420137
N        3.28493000       9.32451005       9.79134003      -0.63450144      -0.64511775       0.33744185
64
Lattice="6.43258 0.0 0.0 0.0 11.1415596 0.0 0.0 0.0 10.4799004" Properties=species:S:1:pos:R:3:forces:R:3 tag=5 energy=-387.68513595 free_energy=-387.68513595 pbc="T T T"
Ga       1.56930997       0.91482198       2.62877004       0.24588736       0.00488396       0.40008031
Ga       4.81302000       0.94243199       2.63619002      -0.24998015      -0.55786629       0.13889525
Ga       6.37379709       3.71205001       2.55897003       0.23814543       0.23100215       0.42736801
Ga       3.21805999       3.73507003       2.66081999      -0.39379596      -0.13362526      -0.67327496
Ga       1.60386000       6.53191000       2.59239001       0.49810876      -0.78047293       0.40892180
Ga       4.89051998       6.59578000       2.53772004      -0.92704813      -1.11619200       0.56951920
Ga       0.05732458       9.25800998       2.67602004      -0.78949885       0.91993777      -0.19624342
Ga       3.24727001       9.25063995       2.60370998       0.13072236       1.04291837       0.30839235
Ga       0.00732555       1.84931004       5.20448003      -0.61000268      -0.28167680       0.07122995
Ga       3.23140997       1.87887005       5.21382999      -0.04820656      -1.06053909       0.11075640
Ga       1.60926999       4.61781001       5.30913997       0.34046479       0.09112155      -1.64899710
Ga       4.86757999       4.67550000       5.24655002      -0.35543161      -0.52415389      -0.12857491
Ga       6.38996281       7.33383000       5.23191002       0.68772535       1.05577488       0.11779732
Ga       3.22004997       7.41549997       5.25100995      -0.22572552       0.10662601      -0.45803446
Ga       1.58746998      10.14050005       5.22216005      -0.07095550       0.43797371       0.26282019
Ga       4.76025001      10.13399995       5.25786004       0.93944494       1.17330127      -0.04804849
Ga       1.65462998       0.89726400       7.81183995      -0.39203025       0.10783541       0.17039369
Ga       4.85390001       0.98548097       7.89007000      -0.31525309      -0.49484805      -1.04610365
Ga       0.01451023       3.68710997       7.82934003      -0.21141227      -0.43384396       0.03956342
Ga       3.18672998       3.73678996       7.92731001       0.14310905      -0.56236663      -0.89720983
Ga       1.62664999       6.49306005       7.88843000      -0.16985812       0.12229877      -0.34197294