63
Lattice="12.6078568 0.0 0.0 0.0 5.4593644 0.0 0.0 0.0 10.2703028" Properties=species:S:1:pos:R:3:forces:R:3 tag=1 energy=-373.48967717 free_energy=-373.49063977 pbc="T T T"
Ga       1.58120995       0.92958901       2.53025003      -0.13156191      -0.71753218      -0.99019859
Ga       4.73265004       0.85194102       2.54449001      -0.50239241       0.00799602       0.27602113
Ga       7.81621006       0.84346001       2.58583003       0.83886580      -0.16301227       0.07743551
Ga      10.93499996       0.91012300       2.52615002       1.21577265      -0.32441502       0.14685908
Ga       0.06712990       3.67579999       2.61053001       0.54431563      -0.01396267      -0.94158543
Ga       3.20272999       3.61493997       2.65820003      -1.21179046      -0.04460876      -0.73571607
Ga       6.30036996       3.57421000       2.59396997       0.63624427      -0.42632644      -0.37962570
Ga       9.44305995       3.62768999       2.49203999      -0.10140315      -0.56363352       0.35825960
Ga       0.03287057       1.92435001       5.14307997      -0.52160185      -0.79440549      -0.76213088
Ga       3.10175001       1.82046999       5.13248995       1.51751717       0.05473512       0.66640342
Ga       6.32257996       1.71459998       5.13408996      -0.41890613       0.32041264      -0.10163285
Ga       9.48677996       1.81904002       5.13149004      -0.00293700      -0.63223242       0.11233670
Ga       1.56072004       4.63651000       5.18014005      -0.16670269      -0.06484321      -0.35728720
Ga       4.71913996       4.48083999       5.13730005       0.48816136       0.12468765       0.38842209
Ga       7.92107994       4.46781002       5.10602996       0.47555332      -0.01072439      -0.17813273
Ga      11.00380003       4.58025998       5.05514995      -0.76660550       0.56181710       0.21350889
Ga       1.59679994       1.06778000       7.74499001      -0.39040392       0.11567720      -0.52932148
Ga       4.72654998       0.79788998       7.70318998       0.16021977       1.17583910       0.40844301
Ga       7.88449005       0.78883699       7.68139999       0.43664577       0.13432699       0.04571063
Ga      11.01670001       0.90146603       7.70565999       0.44154279       0.54313790      -0.47966584
Ga      12.58596943       3.78300001       7.63875996       0.32462039      -0.31995321      -0.09775570
Ga       3.15203997       3.73460002       7.80073003      -0.66026614      -0.46368840      -0.94259079
Ga       6.33881005       3.50633001       7.68352995       0.03312358       0.58665823       0.15369781
Ga       9.50708995       3.58412001       7.72106000      -0.02519455      -0.32017263      -0.73472056
Ga      12.57913408       1.91934001       0.03359724      -0.09551355       0.11467745      -1.08854335
Ga       3.12434997       1.87367002      10.25270001       0.34714721      -1.00049285       0.47699561
Ga       6.31522000       1.69201000      10.26060003      -0.16812361       0.24778382       0.24636470
Ga       9.47920995       1.80991000       0.00799718      -0.32138388      -0.92862704      -0.55348710
Ga       1.55388002       4.66099001       0.00059722      -0.27169151      -0.25426709       1.17831192
Ga       4.71381995       4.48484001       0.05199721       0.25717476      -0.13060137      -0.03398636
Ga       7.89412006       4.40557998      10.21570002       0.01198192       1.19757298       0.25507857
Ga      11.07220005       4.55889001      10.24170001      -0.23335708       0.60465529       0.63339490
N       12.58848407       1.81964000       1.90780005      -0.18833714       0.32485803       0.76352542
N        3.19272994       1.79712002       1.92767997      -0.42400902       0.41211584      -0.17875082
N        6.26728997       1.72932000       1.96931002       0.57987317       0.84544987      -0.82476287
N        9.40020004       1.78540002       1.89191004      -0.48017022       0.02036946       0.43898068
N        4.76329003       4.49955999       1.98919004      -0.61072070      -0.29106611      -0.56713960
N        7.85326001       4.48530002       1.87184002      -0.04000998       0.20800122       0.43084142
N       11.04109999       4.48556998       1.93951998       0.36227931       0.89905780      -0.64658407
N        1.61291001       0.94609398       4.41791001      -1.12281122      -0.02931262       0.90900689
N        4.71148006       0.83822601       4.44342001      -0.13325246       0.45267584       1.34793637
N        7.91596002       0.83398102       4.56425002       0.04407559       0.18596084      -1.10527293
N       11.06549998       0.95525900       4.43507005       0.09794388      -0.10740072       0.48060456
N       12.57227428       3.74702002       4.50690999       1.32645883      -0.66695716       0.16901768
N        3.07641994       3.65391001       4.54920998       0.67666372      -0.20292768       0.15497909
N        6.37557002       3.57585000       4.49566997      -1.35479782      -0.35335192       0.46279156
N        9.48686998       3.55711002       4.40849995      -0.19137325       1.01028040       0.38460550
N       12.54427626       1.95328000       7.04165000       0.93633558      -0.75167868       0.43867036
N        3.24937994       1.94484998       7.12208999      -0.95198635      -1.24563101      -0.53252340
N        6.32381994       1.70739001       7.06721001      -0.34901028      -0.14190038      -0.02741087
N        9.45767006       1.74316998       7.06134998      -0.35872963       0.80730396      -0.03822658
N        1.60698003       4.69901000       7.08590001      -0.09424539      -0.25115268       0.22175338
N        4.72997995       4.46532000       7.13080999       0.90876916       0.33298151      -1.09700391
N        7.94954004       4.43010999       6.99185002      -0.86775660       0.10081306       1.37332429
N       10.99119999       4.60432000       6.98269004       0.12516958      -0.43317244       0.41503279
N        1.51907994       0.97865200       9.67497997       0.51021637       0.71500416      -0.55917086
N        4.67977004       0.81059201       9.67668998       0.11475007       0.85860018      -0.41014328
N        7.92461998       0.84651998       9.62973005      -0.29964076      -0.52119218      -0.18931275
N       11.04750000       0.93617798       9.59684002       0.17524330      -0.14245943       0.79509843
N        0.02975101       3.76930001       9.54808001      -0.04800076      -1.22100877       0.78942280
N        3.07779004       3.66982002       9.68486997       0.49260371       0.28655055       0.48663120
N        6.28739004       3.55031000       9.65226001      -0.14708074      -0.27640929      -0.41177152
N        9.53452995       3.58381002       9.63531997      -0.42750098       0.55911982      -0.20501189
63
Lattice="12.6078568 0.0 0.0 0.0 5.4593644 0.0 0.0 0.0 10.2703028" Properties=species:S:1:pos:R:3:forces:R:3 tag=2 energy=-374.02846736 free_energy=-374.02922988 pbc="T T T"
Ga       1.63218994       0.84994399       2.59618003      -0.79852857       0.64404783      -0.55507854
Ga       4.73772004       0.87244798       2.60371998      -0.07647956       0.59030295      -0.11250246
Ga       7.88805997       0.87929599       2.56519001      -0.22413163       0.28334415      -0.57822021
Ga      11.05190001       0.92510502       2.50806001      -0.11399790       0.00108454       0.16160559
Ga      12.57368005       3.65777000       2.53707999      -0.46318400      -1.36405145       0.50094395
Ga       3.07514995       3.59061998       2.57494998       0.88333694       0.47962240       0.94875634
Ga       6.29034999       3.61917000       2.56761000       0.54411336      -0.48460719       0.15201612
Ga       9.44700003       3.65980001       2.58106995      -0.00243621      -0.66534641       0.05098508
Ga      12.58411696       1.82720002       5.13934004       0.18556552      -1.07563934      -0.07538911
Ga       3.08860997       1.75668998       5.16683005       0.61757004       0.88961018      -0.55364792
Ga       6.34382004       1.78909000       5.14119003      -0.30499600       0.10835184       0.59111855
Ga       9.46734999       1.88458002       5.08428998       0.34923408      -0.57009048       0.39739245
Ga       1.57616000       4.49604001       5.15159005       0.63144837      -1.16001744      -0.22349033
Ga       4.74723998       4.49363003       5.09181000      -0.44905081      -0.50108845      -0.36631407
Ga       7.85235994       4.56998999       5.14817004       0.69599050       0.41437842       0.43602151
Ga      11.09749998       4.54389003       5.07216004      -1.09308602       0.61937538       0.51195080
Ga       1.64157006       0.85880601       7.73850000      -0.58127589      -0.06880328      -0.06521295
Ga       4.73303004       0.92235699       7.73942002       0.28955262       0.00859256      -0.68835825
Ga       7.85861003       0.96572198       7.72326997       0.06815605       0.38132757       0.17297654
Ga      11.02370002       0.91925799       7.64800005      -0.21417451      -0.34108019       0.20483403
Ga       0.03081335       3.54585003       7.65285995      -0.67543864       1.39070923      -0.08592152
Ga       3.22062003       3.61643999       7.77139003      -0.46118257       0.36038554      -0.39690955
Ga       6.27118996       3.69672999       7.71720001       0.47666925       0.27157797      -0.30914114
Ga       9.42115997       3.67664002       7.71978998       0.67926330       0.24195627      -0.82018269
Ga      12.57379630       1.83502001      10.21950003       0.68410271      -1.26885005       0.66871064
Ga       3.17703001       1.76931001       0.02319722      -0.58806551      -0.20348640      -0.31207024
Ga       6.30574998       1.87486000      10.24800002       0.08188139       0.04811136       0.76110320
Ga       9.50460999       1.83141001      10.23689998      -0.93947462       0.05844136       0.41031764
Ga       1.52391997       4.42722002       0.02929717       0.16107162       1.29053824      -0.15059484
Ga       4.74634999       4.54387998       0.00299718      -0.18937378       0.41694969       0.96057622
Ga       7.87800999       4.57670998      10.25110000       0.42786580       0.60586847       0.74852583
Ga      11.02729994       4.51568002      10.26669998      -0.12135489       0.69241738      -0.73339464
N        0.04617716       1.76045001       1.91383005       0.05928266       0.97668730      -0.25174511
N        3.15945995       1.81523997       1.93315003       0.09804524      -0.72662301       0.57883632
N        6.26491994       1.78938999       1.93353003       0.54011960       0.22864027      -0.19475717
N        9.45677994       1.80014003       1.91360996       0.05580417       0.55297706       0.03717920
N        1.51815995       4.51534001       1.96399000       0.79328795       0.09851616      -0.46645761
N        4.73176005       4.53685001       2.00830996      -0.97596729      -0.39921826      -0.80664582
N        7.88453002       4.50877998       1.93609997      -0.44501350       0.42818112      -0.33550749
N       11.00300006       4.55721999       1.88808004       0.31186754      -0.28904829       0.50003809
N        1.53928996       0.81560098       4.50441000       0.41414343       0.58143708       0.17133509
N        4.74172001       0.91256901       4.52157999      -0.47578490      -0.05059769       0.14471055
N        7.91986001       0.93297699       4.47542001      -0.37500587      -0.44730427       0.41426865
N       11.05880004       0.91235599       4.42312004      -0.35674037       0.10663523       0.70374338
N       12.60576919       3.57400997       4.49468001       0.28601563       0.72985982      -0.61233910
N        6.39204005       3.56554998       4.49816000      -0.85439097       0.89895699      -0.05202428
N        9.44324995       3.70930001       4.53304997       0.44354428      -0.35862206      -0.70664895
N        0.03796982       1.76023000       7.07123001       0.21381981      -0.16485197      -0.29821794
N        3.18540994       1.82501999       7.06803995      -0.44966682      -0.01008524       0.48750735
N        6.25917000       1.90244000       7.11638000       0.53628303      -0.71624460      -0.57509556
N        9.43759003       1.86739001       7.05052005       0.12729649      -0.12140780      -0.10936129
N        1.61898006       4.49455997       7.08253997       0.20764027       0.05249431       0.00153730
N        4.72508999       4.60370997       7.02005997      -0.19462837      -0.43601048       0.76102983
N        7.85959004       4.63091999       7.11529002      -0.19146425      -0.52546811      -0.56770318
N       11.04389995       4.57390998       6.99650000       0.18298577      -0.72880864       0.77505164
N        1.56253998       0.81468403       9.66571000       0.36620451       0.64397098       0.01658274
N        4.76960001       0.91332000       9.63789001      -0.60787724      -0.08787864       0.30877311
N        7.85317995       0.96424599       9.68263001       0.74184091      -0.24268444      -0.62291974
N       11.02370002       0.90501500       9.59567999       0.15252976      -0.43589688      -0.06374260
N       12.58553144       3.60523000       9.57774999      -0.12487555       0.18909476       0.20198520
N        3.14661998       3.63088001       9.74066000       0.46195551      -0.53306622      -0.99727483
N        6.33096002       3.72493001       9.64142001      -0.78584432      -1.01953263      -0.12306472
N        9.43112005       3.66976002       9.62911003       0.36500247      -0.28803451       0.02952095
63
Lattice="12.6078568 0.0 0.0 0.0 5.4593644 0.0 0.0 0.0 10.2703028" Properties=species:S:1:pos:R:3:forces:R:3 tag=3 energy=-373.57341867 free_energy=-373.57498905 pbc="T T T"
Ga       1.58215995       0.79758901       2.58475001      -0.14128126       0.40751561      -0.29074143
Ga       4.74761998       0.89699399       2.58192003       0.25215192      -0.47240194      -0.44201589
Ga       7.82021003       0.96807803       2.57084001       0.75870219      -0.60909089       0.11710257
Ga      11.04410003       0.92259999       2.54973002      -0.02124972      -0.16086831      -0.02666446
Ga       0.02595693       3.58595998       2.49665002      -0.66427801      -0.10645810      -0.70182919
Ga       3.16037994       3.56291998       2.59134005       0.46749781       0.18803376      -0.13070001
Ga       6.30830005       3.64214999       2.59339997       0.05819804       0.15185271      -0.05298659
Ga       9.45901002       3.67153999       2.59032000      -0.47872710       0.17943142      -0.45649220
Ga       0.01359757       1.78763999       5.09484005      -0.00725348      -0.49445124       0.15566281
Ga       3.17803006       1.68662002       5.10693005      -0.14259352       0.40950339       0.41246175
Ga       6.33591995       1.89398000       5.19371996      -0.32004596      -0.92034355      -0.65400470
Ga       9.49801999       1.86530000       5.13191995      -0.71627496      -0.53714798      -0.17389353
Ga       1.49891998       4.41866001       5.14905996       0.40465301       0.13339499      -1.29036463
Ga       4.69701998       4.49666003       5.14519000       0.26118085      -0.00072304      -0.52744518
Ga       7.83777996       4.60778998       5.16263997       0.50499540       0.44400644      -0.50556218
Ga      10.99340006       4.56765999       5.12636998       0.36284243      -0.46105760      -0.60808436
Ga       1.56836002       0.79700999       7.73455004       0.66503086       0.96398560      -0.51689198
Ga       4.73450995       0.89183402       7.69789995       0.17008823       0.20978415      -0.17129269
Ga       7.86406999       1.00362002       7.71924000      -0.06358593      -0.26751636       0.33350420
Ga      11.06229998       0.86523201       7.71823002      -0.35736830       0.10385607      -1.57085897
Ga       0.04490956       3.57777000       7.68034996      -0.55329639      -0.34897272       1.12211273
Ga       3.14231995       3.61484001       7.72426002       0.00426810      -0.94463433      -0.74073636
Ga       6.25131997       3.75897002       7.72532998       1.20341986      -0.70663928       0.33980170
Ga       9.46043004       3.65955002       7.62269001      -1.23313486      -0.17619923       0.92528335
Ga      12.53960127       1.74186999      10.19340001       1.77616369       1.33710240       0.18575783
Ga       3.14706000       1.77288000       0.04389723       0.15875953       0.61554461      -0.44182591
Ga       6.30836006       1.84057000       0.02769716      -0.32730778       1.02754335      -1.23751750
Ga       9.56942005       1.91112001      10.25340004      -2.03059802      -0.23913139       0.83458431
Ga       1.60311005       4.46532999      10.25849996      -0.63380791      -0.23689212      -0.36031358
Ga       4.74901995       4.59425998       0.01339720      -0.12420209      -0.24077875       0.53786984
Ga       7.91235001       4.60530001       0.06119724      -0.52836639       0.31808414      -1.54777243
Ga      11.05070000       4.58119998      10.20579996       0.34047084      -1.70363512       0.51360010
N        0.04511986       1.72490999       1.82623002      -0.31481312       0.71513808       0.81953758
N        3.14065004       1.73571003       1.98301995       0.05680284       0.34831075      -0.51239122
N        6.29722997       1.85398001       1.89433003      -0.56361609      -0.06736840       0.92841092
N        9.45580006       1.82481002       2.01378998       0.15078990       0.50093802      -1.37205470
N        1.62396004       4.47330001       1.91202998      -0.40239508      -0.17173580      -0.11332704
N        4.74263004       4.51125001       1.95143004      -0.61168341       0.28077270      -0.03357421
N        7.82506998       4.59154001       1.90425998       0.87939780      -0.16144167       1.53501162
N       11.01549999       4.58026997       1.88138000       0.53684410      -0.62225626       0.15738363
N        1.55351994       0.77905801       4.50528996       0.14173348       0.42758013      -0.07746340
N        4.79552000       0.83119898       4.46398003      -0.15534830       0.79713560       1.03029532
N        7.86825000       0.95933398       4.49403997       0.34594625       0.05860221       0.27425443
N       11.03320004       0.90062698       4.47246001       0.10549694       0.03313855       0.34107441
N       12.52857015       3.54945998       4.38381004       0.31112918       0.67491395       1.20216863
N        3.13352004       3.55950002       4.51106002      -0.19637177      -0.26737834       0.17503108
N        6.34294997       3.66506000       4.52638999      -0.93369111      -0.16878562      -0.50059627
N        9.40834005       3.67522997       4.50881000       0.25602948       0.13467915       0.17903455
N        0.05060403       1.76640001       7.04216002      -0.49661815      -0.23955419       0.17609379
N        3.15555996       1.74425000       7.07188998      -0.54950425       0.38416403      -0.18936400
N        6.28514005       1.93527000       7.08225004      -0.00746563      -0.83709504       0.53494437
N        9.47631002       1.81770002       7.07653996       0.36813846      -0.03931648      -0.23636827
N        1.55951006       4.49149001       7.01540003       0.21914604      -0.18978682       0.89462949
N        4.68740006       4.49440001       7.03974999      -0.34350425       1.23471854       0.17044801
N        7.86304005       4.64581003       7.04539003       0.06334122      -0.43070829       0.78495508
N       11.03809996       4.45168999       7.04466002       1.03757725       1.29259372       0.13443047
N        1.57958000       0.84723003       9.64911001      -0.32724716       0.18593603      -0.14462401
N        4.72496000       0.90977998       9.61773002       0.10736088       0.59532899       0.37431819
N        7.87411000       0.99965799       9.66886000       1.11664242      -0.30268246      -0.21524885
N       11.01930000       0.88583701       9.58910001      -0.26861215       0.25222004      -0.08217256
N        3.22367996       3.65515000       9.60499998      -0.65956896      -0.89617446       0.81274204
N        6.29453996       3.76983000       9.64003999       0.74117577      -1.37470124       0.06336963
N        9.43933004       3.69838003       9.58890005       0.34783636      -0.00988212      -0.14069612
63
Lattice="12.6078568 0.0 0.0 0.0 5.4593644 0.0 0.0 0.0 10.2703028" Properties=species:S:1:pos:R:3:forces:R:3 tag=4 energy=-373.74905601 free_energy=-373.74927483 pbc="T T T"
Ga       1.57406003       0.95395498       2.50480001      -0.08611970       0.25013161       0.06878529
Ga       4.67407003       0.94564102       2.63788999       0.55040099      -0.13568863      -1.25602139
Ga       7.82307996       0.80919900       2.54878998       0.53603668       1.35884107       0.50296832
Ga      11.08650000       0.83534701       2.56785002      -1.00641299       1.45172637       0.44690986
Ga       0.06877699       3.72938998       2.51262003      -0.09854468      -0.14170436       1.22586812
Ga       3.15413994       3.67067998       2.61985000       0.49947877       0.62981681      -0.29919316
Ga       6.30844996       3.58909998       2.61324003      -0.49390696       0.19626672      -0.29460136
Ga       9.46281999       3.58748003       2.54229001       0.01093266      -0.58931716       0.27663976
Ga      12.51682946       1.87136999       5.09998999       0.62757347       1.10563393       0.25405047
Ga       3.11071003       1.81572002       5.12106003       0.14487436       0.31405312       0.16020440
Ga       6.29775005       1.74102002       5.16972001       1.21759875       0.73903786       0.12573743
Ga       9.42501999       1.74513000       5.14198998      -0.51074466      -0.08148781      -0.11151505
Ga       1.57112001       4.58445998       5.13758002      -1.00747317      -0.44475823      -0.62055139
Ga       4.76615000       4.56997001       5.14896003      -0.20195627      -0.33151350       0.27495694
Ga       7.88402999       4.43732001       5.15322005       0.08346131       0.22996701       0.09696981
Ga      11.02220006       4.50579999       5.12525001       0.64240388      -1.11679705      -0.41031010
Ga       1.59123004       1.02020000       7.67319002       0.19149682      -0.23868960       0.92092630
Ga       4.69545005       0.93379999       7.71923004       0.73440807      -0.43866207      -0.05143505
Ga       7.89844998       0.72680098       7.70714004      -0.50457718       0.56683199      -0.43918863
Ga      11.10480006       0.92999901       7.63915002      -1.14727950      -1.04977375       0.98762008
Ga       0.00281042       3.66546000       7.75292002      -0.23016467       0.50320487      -0.38993771
Ga       3.10871005       3.71893999       7.63494998       0.20965667       0.12389846       0.20315743
Ga       6.23721002       3.55898002       7.76452002       0.49139899      -0.33535187      -0.52061097
Ga       9.48267005       3.54277002       7.69046004      -0.33266611      -0.20713498      -0.07769297
Ga      12.56690144       1.88687999       0.00009716       0.81246162      -0.19856554       0.08978572
Ga       3.24103001       1.89647002      10.25580000      -0.46358133      -0.02660964      -0.47985658
Ga       6.38881004       1.79591999       0.00139717      -0.76699642      -0.42253911      -0.17733259
Ga       9.44168998       1.77999999       0.00619720      -0.10267581      -0.61136375      -0.23002224
Ga       1.60366000       4.61202999      10.24289999       0.22774382       0.54357464      -0.29020272
Ga       4.74381001       4.52232002      10.23800003       0.08160017       0.90046586       0.67833224
Ga       7.93804999       4.45882003      10.26289997      -1.40318476       1.18290025       1.08232394
Ga      11.00650000       4.54742000       0.00169717      -0.09173473       0.52874720      -0.29769572
N       12.57268907       1.90447001       1.96910996       0.30608574      -0.60609708      -0.26795735
N        3.12405999       1.92903999       1.89477997       0.50794262      -0.94124887       0.75165647
N        6.30866996       1.79486000       1.88689002      -0.41113325      -0.01679579       1.28668575
N        9.43886998       1.72680002       1.91473004       0.22239053       0.39338023       0.55814507
N        1.64586001       4.59791999       1.88710005      -0.28556723       0.28414944       0.01520328
N        4.73683005       4.58813998       1.92311995      -0.04371812      -0.32671464       0.57717054
N        7.87392000       4.51167999       2.01881001       0.26246191      -1.13518265      -1.68638269
N       11.04040001       4.54531001       1.93152999      -0.10641281      -0.68468115      -0.16201442
N        1.51760003       0.91157399       4.44146999       0.22676788       0.67529052       0.47633167
N        4.75210005       0.93415299       4.56208001      -1.43571670      -0.45391275      -0.83884816
N        7.86233994       0.77549502       4.48579004      -0.06519485       0.87028267       0.39565639
N       11.00510002       0.86545901       4.54274996       0.25372821      -0.42883911      -0.88203547
N        3.15469998       3.67839002       4.55254002      -0.06782092      -0.32210552      -0.32572813
N        6.28600999       3.59706001       4.56395002       0.00502926      -0.59812513      -0.72910299
N        9.46057995       3.55141001       4.47840004       0.08914152       0.07411166       0.15514702
N       12.60662300       1.88314999       7.11317002       0.55000004      -0.04398678      -0.89874097
N        3.18957999       1.91835001       7.06006999      -0.69287928      -0.92376367      -0.34875176
N        6.33752998       1.72262000       7.06965002      -0.22098175       0.27521186       0.59623589
N        9.43231994       1.67933002       7.07842004       0.47322789       0.80752774      -0.14066863
N        1.51738999       4.64759999       7.07308000       0.19912099      -0.30601107      -0.38487153
N        4.72335994       4.54217999       7.06911001       0.12218809       0.48254017       0.17461904
N        7.85117001       4.36333001       7.08904005       0.34066636       0.63635927      -0.10257265
N       11.03520002       4.51264002       7.02557995      -0.05814299       0.25103064       0.91786814
N        1.60822001       1.02101000       9.65809005      -0.24303536      -0.27198395      -0.33364058
N        4.79504002       0.92007198       9.64332002      -0.57253758       0.01410638      -0.07445765
N        7.86372995       0.82535102       9.59477004       0.91435663      -0.06258923       0.84949146
N       11.04759998       0.93515899       9.64197995      -0.18932317      -0.47318134      -0.53642954
N        0.00188210       3.72790001       9.66633002       0.01033780      -0.49887440      -0.10142066
N        3.15681003       3.74233998       9.53754997      -0.02595222      -0.89459404       0.72648839
N        6.32656001       3.60196001       9.69689998      -0.12193216       0.11333056      -0.61450255
N        9.42835994       3.58676998       9.64731003       1.44339480      -0.14377468      -0.50164187
63
Lattice="12.6078568 0.0 0.0 0.0 5.4593644 0.0 0.0 0.0 10.2703028" Properties=species:S:1:pos:R:3:forces:R:3 tag=5 energy=-373.80962158 free_energy=-373.81031051 pbc="T T T"
Ga       1.62114004       0.94066301       2.54498001       0.24028487      -0.30656664       0.14379158
Ga       4.71725005       0.95714701       2.54750999       0.13437521       0.18235658       0.75698574
Ga       7.95262001       0.79290799       2.52460999      -0.13590839       0.84407221       0.44543435
Ga      11.05289994       0.89163502       2.63897998      -0.10657656      -0.42350148      -1.21398588
Ga       0.02761814       3.61530002       2.59039005      -0.09009629       0.19215581      -0.97325596
Ga       3.11201003       3.72028998       2.60333001      -0.21908632      -0.94009148      -0.81237266
Ga       6.26547002       3.66962998       2.58513997       0.48493804      -0.57991205      -0.28435799
Ga       9.48233998       3.62529000       2.52670996       0.46129188      -0.88230432      -0.70786987
Ga      12.59598965       1.75866998       5.13522001      -0.25111922       0.31936782       0.33432524
Ga       3.12519003       1.81099002       5.12318999       0.74884393      -1.14183450       0.02857904
Ga       6.30288006       1.80125002       5.15489000      -0.52783393      -0.86946989      -1.26476832
Ga       9.40518002       1.79820998       5.18088999       0.33761356      -0.14299837      -0.85623339
Ga       1.50996005       4.49704000       5.09289003       1.04355391       0.61011333       0.78459043
Ga       4.70161000       4.51692999       5.20881001       0.24021902       1.08409363      -1.13391411
Ga       7.89258001       4.50946000       5.12294997      -0.41774289      -0.10752276      -0.26269335
Ga      10.96829996       4.48430003       5.10509002       0.39800520       0.18677502       0.37377235
Ga       1.57483995       0.88378598       7.73809001      -0.60743644      -0.05761097      -0.67180491
Ga       4.68129004       0.86278698       7.74586997       0.32384765       0.69156225      -0.55275079
Ga       7.84004004       0.92258798       7.70880003       0.44773043      -0.41964429      -1.23233258
Ga      11.05159994       0.89885498       7.62679002      -0.21020879      -0.04278361       0.84315762
Ga       0.02171678       3.69939001       7.67371996      -0.29485994      -1.03040814      -0.41027394
Ga       3.16547995       3.55845002       7.73322004      -0.17591191       1.02038704      -0.00390169
Ga       6.28473004       3.63786002       7.67860996       0.62321635      -0.22182303       0.49921227
Ga       9.45011001       3.62882003       7.71529004      -0.03154134       0.06151964       0.31491839
Ga       0.02750001       1.85574000       0.00889716      -0.89307449      -0.23107540       0.27066132