63
Lattice="6.43258 0.0 0.0 0.0 11.1415596 0.0 0.0 0.0 10.4799004" Properties=species:S:1:pos:R:3:forces:R:3 tag=1 energy=-375.46025003 free_energy=-375.46122768 pbc="T T T"
Ga       1.56302997       0.94962699       2.56888003       0.90238771      -0.66154553       0.68972468
Ga       4.81349003       0.88614896       2.68510999      -0.00697933      -0.27633909      -1.35052348
Ga       6.40092103       3.67855002       2.60299001       0.45321008       0.08460196       0.06040957
Ga       3.24326001       3.77458001       2.64641002      -0.67716553      -0.73231609      -0.04436287
Ga       1.61269997       6.47004995       2.54794004      -0.12891627       0.46428042       0.98944616
Ga       4.80778002       6.51033994       2.57717005       0.33597412      -0.18541817       0.50672083
Ga       0.01426753       9.25559004       2.61007002      -0.12992315       0.45861514       0.61962326
Ga       3.23534999       9.27018002       2.67880004       0.04895449       0.13743185      -0.78060069
Ga       6.38444102       1.81532996       5.26100998       0.94755330       0.63475497      -0.58465338
Ga       3.22902998       1.90313002       5.24310004      -0.70450161      -0.35838888      -0.69323129
Ga       1.55558001       4.68343001       5.22026004      -0.19746113       0.42717783      -0.08887690
Ga       4.80643002       4.69662005       5.22799997       0.15025830      -1.25559212       0.46104904
Ga       6.41612533       7.38768005       5.31517000       0.30975514       0.06657960      -1.15088669
Ga       3.26600001       7.37780005       5.18578001      -0.49182654       0.01541063       0.72350694
Ga       1.57529002      10.14399995       5.22744998       0.50820368       0.51735121      -0.35763363
Ga       4.86190999      10.16909999       5.29541004      -0.12428389       0.03885731      -0.82229607
Ga       1.64677001       0.85787602       7.80943000       0.21000650       0.16975706       0.18365833
Ga       4.89249999       0.98608797       7.84222999      -0.57394714      -0.40881286      -0.14416015
Ga       0.05456172       3.75368000       7.90171998      -0.46489611       0.03761037      -1.21265271
Ga       3.23946002       3.80220996       7.87234000      -0.06790361      -0.67572239      -1.06235659
Ga       1.63519001       6.49956004       7.91561004      -0.61977684       0.10313903      -0.83305235
Ga       4.81712997       6.50651003       7.95355001       0.42261152      -0.49270286      -1.65518439
Ga       6.35017009       9.19656996       7.83792998       0.88782224       0.49723927       0.18327293
Ga       3.21354998       9.21579996       7.81770000      -0.36978903       0.36421937      -0.01450340
Ga       6.38480748       1.79173002       0.01139962       0.49135350       0.01786112      -0.63924456
Ga       3.21227002       1.85012004       0.03089957      -0.26592933      -0.54003272      -0.41286035
Ga       1.58735001       4.63750004      10.43390003      -0.17881415      -0.01592916       0.56686874
Ga       4.76886002       4.66564997      10.44790002       0.29884426      -0.20604753       0.23975092
Ga       0.04046080       7.40044995       0.04759960      -0.55397607       0.24116140       0.21383158
Ga       3.22228002       7.44894002      10.43359999       0.21902950       0.82701383       0.61295366
Ga       1.64646999      10.16270005      10.47970002      -0.15165825       0.59887001      -0.09774377
Ga       4.92616998      10.19090001      10.43530004      -0.59914420      -0.25178383       0.41272744
N        6.42532231       1.79516998       1.93462001      -0.77533442       0.81379221       0.38335675
N        3.22983000       1.86186001       1.99646001       0.01786556       0.18441591       0.13050967
N        1.60530000       4.62066002       1.93215995      -0.20722024      -0.04488378       0.05702758
N        4.81973002       4.63531997       1.95501997       0.17303754       0.30910073      -0.40103416
N        6.41471962       7.45540001       2.02225995       0.37108224      -1.09378389      -0.95336945
N        3.23399002       7.43263000       1.92142005      -0.40766177      -0.06011885       0.33553892
N        1.59950997      10.18620006       1.97592999       0.54047297       0.24494117      -0.21450713
N        4.85996999      10.15590003       1.95144004      -0.42744787       0.58702323       0.10991607
N        1.55885002       0.87317896       4.55596001       0.52254160       0.51734633       0.41868121
N        4.83009001       0.89682703       4.56996996      -0.47598512      -0.04556027       1.12675151
N        6.41054050       3.71535995       4.57514001      -0.28108996      -0.32775775       0.04609983
N        3.14815997       3.81292001       4.61929005       0.86919165      -0.97445618      -0.44828812
N        1.59335000       6.58117999       4.59857998       0.30364507      -1.08593840      -0.67055558
N        4.86683998       6.44480005       4.58134998      -0.36689003       1.22031671      -0.68668988
N        0.03927257       9.19693998       4.59500005      -1.03666682       0.55536857      -0.06697415
N        3.23074999       9.25161005       4.62403996       0.35958581       0.13155879       0.02354345
N        0.05460251       1.90623996       7.20765001       0.06557256      -0.44326166       0.23905867
N        3.28007000       1.90513004       7.17794997      -0.41629294      -0.20081890       0.56662479
N        1.61345998       4.70422996       7.16629004       0.01265053      -0.53054279       0.96098855
N        4.85316001       4.69210003       7.19412004       0.11467847      -0.45543930       0.62826312
N        6.40716719       7.36789999       7.20596998       0.22407833       0.14295578       0.98316311
N        3.23530001       7.31372004       7.23158003      -0.03848722       1.32718234      -0.46500332
N        1.55209002      10.10789996       7.15973004       0.38283451       0.38158646       0.70090854
N        4.80931001      10.22230005       7.23089998       0.02096495      -0.07013421       0.00289160
N        4.80401999       0.87052905       9.77326995       0.15978797       0.71239467       0.61642429
N        6.39855191       3.68998003       9.80952999       0.00465747       0.20776197       0.72778735
N        3.16232998       3.69665004       9.79952997       0.48996851       0.30689179       0.34261275
N        1.62891998       6.55852998       9.85957005      -0.18510548      -1.17966472      -0.17283069
N        4.82425000       6.57120005       9.82017002       0.36174593      -0.83681417       1.18616428
N        0.07926521       9.19205997       9.81138996      -0.53386823       0.77839752      -0.10105083
N        3.24699000       9.34288003       9.78840995       0.27861627      -0.71316043       0.07527045
63
Lattice="6.43258 0.0 0.0 0.0 11.1415596 0.0 0.0 0.0 10.4799004" Properties=species:S:1:pos:R:3:forces:R:3 tag=2 energy=-375.62808994 free_energy=-375.62988317 pbc="T T T"
Ga       1.57872997       0.89323198       2.64011998       0.06241025       0.29037648       0.42458810
Ga       4.78460003       0.95437095       2.63267999       0.18479044      -0.50511932       0.22020383
Ga       0.00254872       3.66697004       2.54773998      -0.15954778       0.18385562       0.59224717
Ga       3.18077000       3.65489002       2.62754002      -0.19445542       0.79606019      -0.19492948
Ga       1.64027998       6.51631004       2.60246004      -0.08359882      -0.04474002       0.30605247
Ga       4.87657003       6.46683995       2.61791999      -0.16604639       0.44167551      -0.68134589
Ga       0.03934378       9.32215996       2.64612004      -0.93397223      -0.16651306       0.05317860
Ga       3.17957997       9.31573997       2.55776997       0.36625666      -0.41792887       0.05714207
Ga       6.37037393       1.88549995       5.23310001       0.24467459      -1.07011647      -0.10298297
Ga       3.20159998       1.86938000       5.26117996      -0.04053122      -0.77768258       0.03176274
Ga       1.57730998       4.57733996       5.30804996       0.28094175       1.19122421      -0.26450289
Ga       4.81877002       4.63477002       5.18300001      -0.37745948      -0.00657154       0.16060392
Ga       6.43232077       7.38193000       5.19248998       0.45640154       0.30437717       0.72908845
Ga       3.26646001       7.49025003       5.27680004      -0.56804678      -0.99652062      -0.28534934
Ga       1.67943999      10.19259999       5.28914998      -0.73048127      -0.68945347       0.12871666
Ga       4.81579000      10.15929999       5.23754003       0.43801130       0.37000476      -0.33501680
Ga       1.65942000       0.89878304       7.86003995      -0.22771452       0.13778985      -0.04684881
Ga       4.84514000       0.91629701       7.80788002       0.20806952       0.37769330       0.34128040
Ga       0.04993773       3.71552997       7.79702997      -0.20331447      -0.05651575       0.76196966
Ga       3.31050999       3.74064995       7.91918002      -0.50798468      -0.01255487      -0.04726526
Ga       1.58981002       6.48822005       7.92641995       0.31689236       0.41740562      -0.22564614
Ga       4.84908002       6.49867005       7.86014999      -0.19602488      -0.15768607      -0.23455648
Ga       6.36886240       9.25742995       7.87954996       0.79752502       0.19391638      -0.18558190
Ga       3.19297003       9.29207998       7.83238003      -0.30799296      -0.55459210       0.52774319
Ga       6.41812130       1.83862005      10.46499997      -0.45804926       0.16345220      -0.32553434
Ga       3.15386998       1.83171997       0.01279963       0.35795266      -0.15252150      -0.67661145
Ga       1.48378998       4.61263999       0.02559957       1.36841692       0.46452007      -0.64680212
Ga       4.78968003       4.63136004       0.00569960      -0.40301424      -0.17725333       0.12962307
Ga       0.03782878       7.42926002      10.44529996      -0.43359375      -0.07156571       0.48572727
Ga       3.21836000       7.41751002      10.46240001       0.67324425      -0.14677195       0.38605907
Ga       1.71434001      10.17579997      10.46140002      -1.04325930       0.39821016       0.13471385
Ga       4.88567001      10.21079995      10.47509998       0.01547253      -0.08625445      -0.47340022
N        6.41319819       1.80959997       1.95969998       0.11200191       0.24682793       0.10451799
N        3.18088997       1.84797005       1.96834003      -0.23482158      -0.38072762       0.29374489
N        1.57246001       4.61519999       1.92573001       0.30123902       0.31101955       1.09780291
N        4.79956999       4.57249996       2.00632998       0.06553117       0.57030469      -0.38511267
N        0.01874589       7.51511999       1.93878996       0.07710411      -1.13836219       0.46762992
N        3.27817000       7.43690001       1.96456003      -0.43017839      -0.15174465      -0.06761557
N        1.55998003      10.24849998       1.95215005       0.83216800      -0.39837573      -0.20994726
N        4.79529001      10.23310000       1.95163999       0.39419666       0.05776947       0.43266899
N        1.57008001       0.79779795       4.66250999       0.19087341       2.42258565      -0.98998217
N        6.40479872       3.70111000       4.54602999       0.36604936       0.04206554       0.11183937
N        3.16744002       3.69028999       4.59394001       0.24610214       0.05713777      -0.08761323
N        1.65122997       6.52119004       4.64782000      -0.06914578      -0.71295225      -0.67602821
N        4.82579002       6.48266999       4.54809998      -0.01377962       0.21928602       0.62707876
N        0.07612868       9.28260999       4.64245995      -0.99151637      -0.07887419      -0.51472859
N        3.19901003       9.29393995       4.51456996       0.71442503      -0.07593036       0.62778332
N        0.05910538       1.85065004       7.20769004      -0.29699212      -0.06448533      -0.14297265
N        3.27054000       1.91018998       7.24632996      -0.46096069      -0.58385505      -0.38883767
N        1.67424002       4.66685003       7.30343997      -0.21546945      -0.55231307      -0.86551649
N        4.87555999       4.62984000       7.13998004      -0.09117804       0.28785190       0.53505581
N        0.01968691       7.42971002       7.23569003      -0.38682796      -0.25082384      -0.47916040
N        3.19742003       7.41793997       7.24971004       0.49230428       0.11288356      -0.27549723
N        1.58325999      10.17310003       7.21775002       0.06585168       0.37922121       0.31204834
N        4.77220001      10.20239999       7.21091995       0.52840300       0.07135261      -0.35735492
N        1.53256997       0.87809305       9.83576998       1.05838016       0.20321087      -0.16894904
N        4.81552999       0.93489205       9.76598999      -0.27761234      -0.25468701       0.73707496
N        6.39589062       3.73450995       9.80537995      -0.53917944      -0.76138216      -0.13846601
N        3.13360999       3.68233001       9.87809998       0.58934517       0.38674562      -0.13390171
N        1.63990001       6.49753996       9.90374995      -0.44592603      -0.56019348      -0.65431821
N        4.83996003       6.47635005       9.81646999      -0.00506307       0.11141450       0.27302548
N        0.12081299       9.25323003       9.82695000      -1.26420673       0.46657458      -0.05757065
N        3.23259003       9.24479999       9.79776001       0.95291022       0.37825561       0.22897551
63
Lattice="6.43258 0.0 0.0 0.0 11.1415596 0.0 0.0 0.0 10.4799004" Properties=species:S:1:pos:R:3:forces:R:3 tag=3 energy=-375.36818861 free_energy=-375.36906531 pbc="T T T"
Ga       1.59675001       0.93530295       2.55272998       0.18228510       0.18409602       0.88249980
Ga       4.80783000       0.98923000       2.61753999       0.39185059      -0.91408741      -0.29955629
Ga       0.02766479       3.69873006       2.61984997      -0.66182636       0.34889875       0.13600615
Ga       3.14832999       3.64740000       2.60682995       0.41420010       1.47807797       0.51416807
Ga       1.70453998       6.58794002       2.63193005      -0.47086448      -1.15710973      -0.17466838
Ga       4.89613003       6.42711004       2.65805005      -0.08792035       0.09682252      -0.66336637
Ga       0.01485251       9.33890996       2.60850003      -0.30524852       0.08405862      -0.04810156
Ga       3.20896998       9.25408002       2.61829004       0.43345914       0.41576770      -0.46535104
Ga       6.40297669       1.83755002       5.18825998      -0.50016728       0.44145940       1.12271199
Ga       3.19088002       1.78835000       5.33014997       0.35344346       0.66893645      -0.42340804
Ga       1.64025001       4.56058005       5.16703996       0.15960736       0.28345572      -0.44698418
Ga       4.79293999       4.56928996       5.26982997      -0.21216572      -0.60798183       0.23853427
Ga       6.42492562       7.43073995       5.28123000       0.41385149       0.09962546      -0.66796782
Ga       3.23582002       7.40590998       5.20767997      -0.25182346      -0.06213865       0.01798415
Ga       1.65401000      10.22849999       5.20753996      -0.11712673       0.29415751       0.60340039
Ga       4.84136002      10.20369999       5.31533003       0.42154307      -0.14525232      -0.87814520
Ga       1.61720998       0.93212204       7.88072004      -0.33390264       0.04447187      -0.49068521
Ga       4.81441999       0.86009798       7.93306997       0.44879938       0.38075285       0.15624594
Ga       0.07477701       3.66624996       7.87146996      -0.91616479      -0.16514079      -0.16096574
Ga       3.26035999       3.64986006       7.80983997      -0.31065829       0.64234469       0.78460486
Ga       1.60820000       6.47318997       7.84160004      -0.45639181      -0.15182734      -0.57361632
Ga       4.81168003       6.53640005       7.78846003      -0.21738058      -0.63933268       0.64121908
Ga       6.37522371       9.33211996       7.94647995       0.93064256      -0.26612113      -0.56285515
Ga       3.17315003       9.28691999       7.85618995      -0.60523256      -0.09205544      -0.26712025
Ga       0.03883818       1.87365001      10.43469996      -1.17339202       0.55630206       0.30574202
Ga       3.15837002       1.83764996       0.02229955       0.51861279       0.57002026      -0.38793720
Ga       1.53421999       4.67833998       0.00079962       0.52220121      -1.36937045       0.31288976
Ga       4.72251000       4.63400995      10.47090005       0.26525276      -0.23232045      -0.31441165
Ga       0.05442818       7.42719003       0.04339957      -1.10934525      -0.21710985      -0.10201452
Ga       3.18327999       7.32322000      10.43000004       0.80290128       1.32550545       0.21735135
Ga       1.69528002      10.27629995      10.42739998      -0.42017039      -1.35435621       0.45070250
Ga       4.87638998      10.23669995      10.45380000      -0.70208227      -0.74998868       0.77109684
N        0.05215832       1.89659003       1.91411000      -0.78573081      -0.55608004       0.53544002
N        3.20562002       1.89273995       1.95677001      -0.00196086      -0.97960875       0.40697148
N        1.59995999       4.62430999       2.00173999      -0.01550527       1.02501956      -0.47109840
N        4.79088003       4.57770998       1.95360005       0.19018821       0.23896251       0.57867856
N        0.05851197       7.45753997       2.03976003      -0.16525450      -0.30838228      -0.64284833
N        3.32385998       7.39500005       1.93215000      -0.49507359       0.24963370       0.19054188
N        1.63379999      10.26919999       1.91201004       0.03300570      -0.76809746       0.51027398
N        4.78646001      10.20669997       1.95090996       0.51665963       0.54210325       0.31078043
N        1.56439001       1.00791996       4.59536999       0.92748712      -0.98756034      -0.64320143
N        4.78977999       0.90625702       4.61040005      -0.04483661       0.11323016      -0.33892263
N        6.38862399       3.70824996       4.61538000       0.31743552      -0.45410559      -0.66053276
N        1.62073002       6.50737005       4.55684001      -0.06383017      -0.25013768       0.73848260
N        4.82965999       6.37924000       4.59401001       0.03646970       1.23882722       0.45947606
N        0.08168592       9.34133002       4.59094998      -1.14678609      -0.63627082      -0.00171522
N        3.25882003       9.28198996       4.58918999      -0.01607307      -0.07156258       0.02406563
N        6.38729682       1.77146998       7.22868998       0.62176707       0.64235731      -0.03201168
N        3.28536999       1.80324003       7.28290995      -1.06015869      -0.07023703      -0.53863004
N        1.61881002       4.57402000       7.13269001       0.47295872       0.50620483       0.54282877
N        4.85789001       4.58037002       7.26034997       0.01257660       0.89420093      -0.47595125
N        6.41283577       7.50811998       7.23524998       0.18876577      -0.80498991      -0.08801707
N        3.13768998       7.45585002       7.16161998       0.77146889      -0.45179439       0.27047998
N        1.56478002      10.26869996       7.20145000       0.24108454      -0.69313519       0.13827677
N        4.77619001      10.17559998       7.25858998       0.23529343       0.27876276      -0.14543102
N        1.58792000       0.92732805       9.83469003       0.15732206       0.33474327      -0.31752751
N        4.77078001       0.93745896       9.92413996       0.81035623       0.04423693      -0.84136072
N        6.37011682       3.77280995       9.84294997       0.41979751      -0.86609701      -0.24943012
N        3.15589000       3.64363003       9.81235998      -0.30903459       0.76225150      -0.01693467
N        1.58502000       6.44049997       9.79805995      -0.07433384       0.81029571      -0.00749098
N        4.79010998       6.46504003       9.78977003       0.61097148       0.45110283       0.15143212
N        0.04525790       9.27950996       9.89760003       0.08865698       0.24614311      -0.40988244
N        3.23325001       9.27373006       9.77432004       0.11952617      -0.27057686       0.79525570
63
Lattice="6.43258 0.0 0.0 0.0 11.1415596 0.0 0.0 0.0 10.4799004" Properties=species:S:1:pos:R:3:forces:R:3 tag=4 energy=-375.77945526 free_energy=-375.7805003 pbc="T T T"
Ga       1.55165003       0.91689699       2.55006002       0.65402191       0.67925284       0.51025808
Ga       4.81833003       0.96556299       2.57349003       0.04626158      -0.15476767       0.13355440
Ga       6.41778667       3.78662003       2.61023005       0.09298899      -0.82801899       0.06450654
Ga       3.20170001       3.78780003       2.70490998      -0.34743319      -0.89403893      -1.15551429
Ga       1.66489997       6.50371996       2.61601003      -0.26915335      -0.37955371       0.24479192
Ga       4.89672002       6.46708005       2.63479997      -0.03863496      -0.31138029      -0.02952618
Ga       0.03387287       9.25547004       2.61670998      -0.48995549       0.37886234      -0.03613015
Ga       3.23543998       9.18773003       2.61356999      -0.16707294       1.14544725      -0.26472870
Ga       6.41669912       1.84321004       5.22913002       0.06525868      -0.56154777      -0.07280099
Ga       3.20471998       1.83463004       5.22150998      -0.51558132      -0.23427878       0.19235093
Ga       1.61376997       4.61197996       5.31243003      -0.38611998       0.06942007      -0.50498012
Ga       4.83724002       4.58008001       5.24548002       0.00437548      -0.09250484       0.09549950
Ga       6.39526100       7.45607998       5.27681996       0.61251922      -0.64757409      -0.91306143
Ga       3.23851000       7.37209000       5.20014995      -0.39211906       0.34003914      -0.01048864
Ga       1.59681999      10.18099996       5.23709998      -0.23121687       0.50559778      -0.29968355
Ga       4.79998997      10.18599995       5.25254997       0.09907972       0.67566154      -1.13470085
Ga       1.63591001       0.93060400       7.92838001      -0.08016480      -0.00320857      -0.64953463
Ga       4.82667997       0.86700497       7.88793996       0.29924392       0.99649071      -0.46455777
Ga       0.00298961       3.72990002       7.85577002       0.13027730      -0.88263252      -0.23958472
Ga       3.24681002       3.71560996       7.88919996      -0.36982363      -0.39373997      -0.41812639
Ga       1.66652999       6.50948004       7.88527995      -0.79082367      -0.07015291      -1.16714571
Ga       4.81199999       6.43507002       7.80674997       0.40627699       0.44954485       0.27922415
Ga       6.32476198       9.30847000       7.87885001       1.47151436      -0.42003110       0.39456648
Ga       3.22839998       9.25604996       7.80308001      -0.92098003      -0.01842315       0.54443010
Ga       6.41920853       1.89793003      10.41589996      -0.14190724       0.21372709       0.95727851
Ga       3.24034000       1.82906004       0.00069964      -0.34472573       0.42274613       0.58774300
Ga       1.58469998       4.64384003       0.00909959       0.26253344      -0.20138573      -0.77860487
Ga       4.78709998       4.63747999      10.44510000       0.26073699      -0.35481983       0.13042129
Ga       6.42474595       7.41744005       0.00939963      -0.29381652       0.35719976      -0.46777744
Ga       3.18831001       7.39468999       0.03209962       0.79422878       0.86603333      -1.02406181
Ga       1.63890997      10.23369998      10.45929995      -0.00741841      -0.66891417      -0.01131428
Ga       4.91565998      10.18389999       0.01559965      -0.16935205      -0.59091229      -0.13999039
N        0.00428448       1.94155001       1.92744997      -0.29537882      -0.60414591       0.01381955
N        3.22097002       1.91860999       1.97642003      -0.43156572      -0.40273991      -0.06590132
N        1.57969003       4.67259005       1.91900998       0.39309601       0.06485306       0.82305154
N        4.78644000       4.60039998       1.93164005       0.33098974       0.93935936       0.34735991
N        0.06623312       7.42668999       1.95846995      -0.36217309      -0.31664953       0.17605809
N        3.29179003       7.35966995       1.94880004      -0.29584022       0.27313251       0.46394977
N        1.58107001      10.20360005       1.96009004       0.73726673      -0.37457913      -0.16609612
N        4.83046001      10.16579997       1.99708000       0.16632913       0.39218365      -0.39881271
N        1.56816999       0.89703003       4.54472000       0.24982618       0.07988165       0.18306186
N        4.77266997       0.92519600       4.54529996       0.61553814      -0.27602796       0.56250055
N        6.42161811       3.67498995       4.58459005       0.37584029       0.52491530       0.00141564
N        3.20434000       3.71442996       4.62137995      -0.04676934      -0.15869021       0.22988861
N        1.63399001       6.43984997       4.58049000      -0.56954563       0.57204452       0.21216974
N        4.82630997       6.40691998       4.62911998       0.42534150       0.83101261      -0.67988874
N        6.39370187       9.27550000       4.55888998       0.31456000      -0.20290396       0.50708244
N        3.21225002       9.28467998       4.55931001      -0.13885164      -0.83700438       0.39437624
N        0.09219849       1.84537997       7.19954004      -1.37857791      -0.03385236       0.39366712
N        3.21397003       1.87328000       7.24670996       0.55755488      -0.60187405      -0.29234489
N        1.60237999       4.59883003       7.25786005       0.52465445       0.96106346      -0.18387031
N        4.84400001       4.58940995       7.20002997      -0.26906484       0.31919705      -0.05756634
N        6.39504860       7.44556001       7.18733001       0.57875818      -0.26506964       1.01737608
N        3.25294998       7.39296004       7.15467003      -0.40965866       0.19663446       0.30708790
N        1.56443999      10.24219998       7.20486005       0.33254572      -0.75306230       0.43155407
N        4.79945999      10.17359995       7.17965002      -0.40935457       0.77118065      -0.00323792
N        1.56129002       0.96031097       9.89197002       0.86219331      -0.42393593      -0.55152112
N        4.84701001       0.89792202       9.87776001      -0.07047807      -0.00515507      -0.66661485
N        6.43216047       3.72507996       9.77542997      -0.26417084       0.36088912       0.69342734
N        3.20652000       3.67469002       9.80843002      -0.12822483       0.46164519       0.49760742
N        1.60883998       6.55026996       9.78450996      -0.19191639      -0.55497166       0.86231918
N        4.80501002       6.46963002       9.77922002       0.06077206       0.37784483       0.36297406
N        3.28493000       9.32451005       9.79134003      -0.50671387      -0.70731297       0.23279517
63
Lattice="6.43258 0.0 0.0 0.0 11.1415596 0.0 0.0 0.0 10.4799004" Properties=species:S:1:pos:R:3:forces:R:3 tag=5 energy=-375.72010856 free_energy=-375.7212426 pbc="T T T"
Ga       1.56930997       0.91482198       2.62877004       0.25630253       0.05537986       0.42449750
Ga       4.81302000       0.94243199       2.63619002      -0.27044154      -0.43265340       0.15544069
Ga       6.37379709       3.71205001       2.55897003       0.22927805       0.27320281       0.45059636
Ga       3.21805999       3.73507003       2.66081999      -0.38707317      -0.11483849      -0.64682286
Ga       1.60386000       6.53191000       2.59239001       0.36174363      -0.84114002       0.42831555
Ga       4.89051998       6.59578000       2.53772004      -0.79433824      -1.18393322       0.59889774
Ga       0.05732458       9.25800998       2.67602004      -0.72173229       0.80109008      -0.19480988
Ga       3.24727001       9.25063995       2.60370998       0.06842638       1.06341623       0.32060730
Ga       0.00732555       1.84931004       5.20448003      -0.60011613      -0.23365794       0.04855502
Ga       3.23140997       1.87887005       5.21382999      -0.06085822      -1.00703665       0.08846485
Ga       1.60926999       4.61781001       5.30913997       0.35385212       0.07280676      -1.64915808
Ga       4.86757999       4.67550000       5.24655002      -0.36495504      -0.53001923      -0.13019053
Ga       6.38996281       7.33383000       5.23191002       0.67680472       1.00133531       0.10007797
Ga       3.22004997       7.41549997       5.25100995      -0.21520987       0.05621127      -0.54515794
Ga       1.58746998      10.14050005       5.22216005      -0.04186294       0.44518498       0.03503414
Ga       4.76025001      10.13399995       5.25786004       0.90394890       1.16733371      -0.21972138
Ga       1.65462998       0.89726400       7.81183995      -0.39142166       0.26796449       0.12463400
Ga       4.85390001       0.98548097       7.89007000      -0.30899325      -0.36230101      -1.10232390
Ga       0.01451023       3.68710997       7.82934003      -0.20869389      -0.39025377       0.02105628
Ga       3.18672998       3.73678996       7.92731001       0.13982163      -0.52387448      -0.90769809
Ga       1.62664999       6.49306005       7.88843000      -0.18155991       0.09762667      -0.33805067
Ga       4.88484001       6.41705000       7.85643004      -0.98877084       0.46896197       0.13009690
Ga       6.38352958       9.21335996       7.83481001       0.54608548       0.83748540       0.21286971
Ga       3.22560000       9.27470996       7.82934003       0.13149249      -0.22796228       0.40959931
Ga       6.41371028       1.81431998      10.46979998       0.30720875       0.37802047       0.12361738