63
Lattice="12.6078568 0.0 0.0 0.0 5.4593644 0.0 0.0 0.0 10.2703028" Properties=species:S:1:pos:R:3:forces:R:3 tag=1 energy=-381.57013855 free_energy=-381.57013855 pbc="T T T"
Ga       1.58120995       0.92958901       2.53025003      -0.21444942      -0.28939545      -0.38670182
Ga       4.73265004       0.85194102       2.54449001      -0.12204590       0.06634420       0.44351015
Ga       7.81621006       0.84346001       2.58583003       0.86507545      -0.17515234       0.15412434
Ga      10.93499996       0.91012300       2.52615002       0.87189667      -0.30454177       0.32881744
Ga       0.06712990       3.67579999       2.61053001      -0.38296990      -0.04172261      -0.70777338
Ga       3.20272999       3.61493997       2.65820003      -0.30688303      -0.19903180      -0.61761249
Ga       6.30036996       3.57421000       2.59396997       0.85820900      -0.52358177      -0.27177095
Ga       9.44305995       3.62768999       2.49203999      -0.27729617      -0.65914178       0.46505269
Ga       0.03287057       1.92435001       5.14307997      -0.69011272      -0.92111086      -0.68391757
Ga       3.10175001       1.82046999       5.13248995       1.64407756      -0.10949616       0.75690485
Ga       6.32257996       1.71459998       5.13408996      -0.27090975       0.31732609      -0.05089619
Ga       9.48677996       1.81904002       5.13149004      -0.11387214      -0.62475746       0.16111639
Ga       1.56072004       4.63651000       5.18014005      -0.22157353       0.01397499      -0.06204417
Ga       4.71913996       4.48083999       5.13730005       0.77161536       0.23279386       0.46399742
Ga       7.92107994       4.46781002       5.10602996       0.49321519       0.03067151      -0.11493912
Ga      11.00380003       4.58025998       5.05514995      -1.01336376       0.64231028       0.26743225
Ga       1.59679994       1.06778000       7.74499001      -0.40269702       0.03135973      -0.76587358
Ga       4.72654998       0.79788998       7.70318998       0.32075808       1.17025054       0.35439815
Ga       7.88449005       0.78883699       7.68139999       0.45028790       0.11060453       0.03108981
Ga      11.01670001       0.90146603       7.70565999       0.28546612       0.53479393      -0.53599249
Ga      12.58596943       3.78300001       7.63875996       0.24468676      -0.25245129      -0.24371070
Ga       3.15203997       3.73460002       7.80073003      -0.57375108      -0.39063026      -1.06178535
Ga       6.33881005       3.50633001       7.68352995       0.14550092       0.56487168       0.12798758
Ga       9.50708995       3.58412001       7.72106000      -0.13094605      -0.34831704      -0.76408599
Ga      12.57913408       1.91934001       0.03359724      -0.36550758       0.13605595      -1.33897700
Ga       3.12434997       1.87367002      10.25270001       0.59683736      -0.96433401       0.24046150
Ga       6.31522000       1.69201000      10.26060003      -0.02624888       0.27136406       0.19269329
Ga       9.47920995       1.80991000       0.00799718      -0.44647788      -0.91210776      -0.60398841
Ga       1.55388002       4.66099001       0.00059722      -0.16179526      -0.60775644       0.28546534
Ga       4.71381995       4.48484001       0.05199721       0.52088800      -0.12884110      -0.22405286
Ga       7.89412006       4.40557998      10.21570002       0.02280046       1.23391331       0.19721964
Ga      11.07220005       4.55889001      10.24170001      -0.53921853       0.61609008       0.47807673
N       12.58848407       1.81964000       1.90780005       0.34008757       0.39355497       0.76450236
N        3.19272994       1.79712002       1.92767997      -0.89192087       0.50858853      -0.16805223
N        6.26728997       1.72932000       1.96931002       0.38968238       0.83411387      -0.84000928
N        9.40020004       1.78540002       1.89191004      -0.31720851       0.00363532       0.43166423
N        4.76329003       4.49955999       1.98919004      -1.15270797      -0.27976220      -0.55573479
N        7.85326001       4.48530002       1.87184002      -0.07161507       0.20089332       0.44433704
N       11.04109999       4.48556998       1.93951998       0.83141841       0.92177284      -0.67973560
N        1.61291001       0.94609398       4.41791001      -1.10112665      -0.10072534       0.65002710
N        4.71148006       0.83822601       4.44342001      -0.32315923       0.46963656       1.28159257
N        7.91596002       0.83398102       4.56425002       0.02173741       0.19558490      -1.15434822
N       11.06549998       0.95525900       4.43507005       0.27457571      -0.10375771       0.41129847
N       12.57227428       3.74702002       4.50690999       1.71750102      -0.68166299      -0.25191929
N        3.07641994       3.65391001       4.54920998       0.31472909      -0.14568127      -0.38058169
N        6.37557002       3.57585000       4.49566997      -1.52150029      -0.34320119       0.41465890
N        9.48686998       3.55711002       4.40849995      -0.07352832       1.03976907       0.33839667
N       12.54427626       1.95328000       7.04165000       1.10532212      -0.71921729       0.52471024
N        3.24937994       1.94484998       7.12208999      -1.10116705      -1.21402870      -0.49258399
N        6.32381994       1.70739001       7.06721001      -0.46379141      -0.14579759      -0.02543865
N        9.45767006       1.74316998       7.06134998      -0.26558791       0.80278953      -0.02984433
N        1.60698003       4.69901000       7.08590001      -0.07942554      -0.24458936       0.22980948
N        4.72997995       4.46532000       7.13080999       0.74987504       0.30505362      -1.15187661
N        7.94954004       4.43010999       6.99185002      -0.88234429       0.09229331       1.38654744
N       10.99119999       4.60432000       6.98269004       0.28782289      -0.47529434       0.40453909
N        1.51907994       0.97865200       9.67497997       0.51446697       0.43900467       0.02278644
N        4.67977004       0.81059201       9.67668998      -0.09251111       0.87050753      -0.31032031
N        7.92461998       0.84651998       9.62973005      -0.31768420      -0.51410823      -0.14956357
N       11.04750000       0.93617798       9.59684002       0.37633789      -0.13502540       0.89612514
N        0.02975101       3.76930001       9.54808001       0.20915665      -1.15783159       1.18709903
N        3.07779004       3.66982002       9.68486997       0.28657903       0.33788129       0.76637523
N        6.28739004       3.55031000       9.65226001      -0.27927608      -0.25554447      -0.33841325
N        9.53452995       3.58381002       9.63531997      -0.31593388       0.58079346      -0.14027312
63
Lattice="12.6078568 0.0 0.0 0.0 5.4593644 0.0 0.0 0.0 10.2703028" Properties=species:S:1:pos:R:3:forces:R:3 tag=2 energy=-382.09043492 free_energy=-382.09043492 pbc="T T T"
Ga       1.63218994       0.84994399       2.59618003      -0.97071180       0.71486840      -0.83388675
Ga       4.73772004       0.87244798       2.60371998       0.07702517       0.68607574      -0.39376571
Ga       7.88805997       0.87929599       2.56519001      -0.11375983       0.27991491      -0.67509734
Ga      11.05190001       0.92510502       2.50806001      -0.21563798      -0.00218333       0.07693640
Ga      12.57368005       3.65777000       2.53707999      -0.70027888      -1.40738130       0.21778045
Ga       3.07514995       3.59061998       2.57494998       0.96491989       0.43762080       0.09759104
Ga       6.29034999       3.61917000       2.56761000       0.78367830      -0.52955020      -0.17814717
Ga       9.44700003       3.65980001       2.58106995      -0.00719197      -0.70324955      -0.08385957
Ga      12.58411696       1.82720002       5.13934004      -0.18151629      -1.25577530       0.09957391
Ga       3.08860997       1.75668998       5.16683005       0.74631924       0.19414360      -0.26166723
Ga       6.34382004       1.78909000       5.14119003       0.06094399      -0.08972092       0.78255113
Ga       9.46734999       1.88458002       5.08428998       0.35540387      -0.62490155       0.50939878
Ga       1.57616000       4.49604001       5.15159005       0.15663828      -0.58592395       0.25324617
Ga       4.74723998       4.49363003       5.09181000       0.12296809       0.05500037       0.08888519
Ga       7.85235994       4.56998999       5.14817004       0.92655606       0.61299418       0.64142613
Ga      11.09749998       4.54389003       5.07216004      -1.28142374       0.81045409       0.71570396
Ga       1.64157006       0.85880601       7.73850000      -0.74437307      -0.01219403       0.03445784
Ga       4.73303004       0.92235699       7.73942002       0.41714166       0.13414863      -0.59883282
Ga       7.85861003       0.96572198       7.72326997       0.19077923       0.38034145       0.23330531
Ga      11.02370002       0.91925799       7.64800005      -0.30821302      -0.35536986       0.26339042
Ga       0.03081335       3.54585003       7.65285995      -0.86622628       1.35982323       0.03118098
Ga       3.22062003       3.61643999       7.77139003      -0.51448999       0.36049244      -0.13383720
Ga       6.27118996       3.69672999       7.71720001       0.70924641       0.18916039      -0.19624063
Ga       9.42115997       3.67664002       7.71978998       0.69491094       0.20244439      -0.74652597
Ga      12.57379630       1.83502001      10.21950003       0.57294033      -1.25905600       0.60902439
Ga       3.17703001       1.76931001       0.02319722      -0.61113710      -0.18851601      -0.43522436
Ga       6.30574998       1.87486000      10.24800002       0.20868870       0.05080122       0.70780182
Ga       9.50460999       1.83141001      10.23689998      -0.93686920       0.07974387       0.38377615
Ga       1.52391997       4.42722002       0.02929717       0.11728312       1.24569541      -0.32216137
Ga       4.74634999       4.54387998       0.00299718      -0.15696153       0.36814688       0.81581497
Ga       7.87800999       4.57670998      10.25110000       0.52407642       0.62103575       0.70164344
Ga      11.02729994       4.51568002      10.26669998      -0.20265409       0.70384805      -0.79434907
N        0.04617716       1.76045001       1.91383005       0.19798066       0.98769106      -0.13389633
N        3.15945995       1.81523997       1.93315003       0.07975027      -0.60969189       0.89082247
N        6.26491994       1.78938999       1.93353003       0.39714396       0.24104616      -0.06559208
N        9.45677994       1.80014003       1.91360996       0.05561631       0.55362835       0.10854176
N        1.51815995       4.51534001       1.96399000       1.02901925       0.02778734      -0.01563324
N        4.73176005       4.53685001       2.00830996      -1.16841439      -0.44177562      -0.37001385
N        7.88453002       4.50877998       1.93609997      -0.56329080       0.39978520      -0.21179731
N       11.00300006       4.55721999       1.88808004       0.42202691      -0.32214398       0.62860142
N        1.53928996       0.81560098       4.50441000       0.69164909       0.75887853       0.17396493
N        4.74172001       0.91256901       4.52157999      -0.78447717      -0.33405491       0.13111199
N        7.91986001       0.93297699       4.47542001      -0.54242628      -0.43655632       0.41753594
N       11.05880004       0.91235599       4.42312004      -0.22229080       0.12693329       0.70936869
N       12.60576919       3.57400997       4.49468001       1.05865562       0.72367865      -0.60124488
N        6.39204005       3.56554998       4.49816000      -1.73646379       0.85689078      -0.05655935
N        9.44324995       3.70930001       4.53304997       0.41912035      -0.36981821      -0.72360407
N        0.03796982       1.76023000       7.07123001       0.37503250      -0.13819630      -0.41882557
N        3.18540994       1.82501999       7.06803995      -0.48166535       0.11598817       0.13915236
N        6.25917000       1.90244000       7.11638000       0.37507680      -0.70639309      -0.69043409
N        9.43759003       1.86739001       7.05052005       0.12309792      -0.12347355      -0.17035347
N        1.61898006       4.49455997       7.08253997       0.38847014      -0.06036981      -0.34158894
N        4.72508999       4.60370997       7.02005997      -0.45444481      -0.60445379       0.23773097
N        7.85959004       4.63091999       7.11529002      -0.31726738      -0.55539509      -0.67090265
N       11.04389995       4.57390998       6.99650000       0.28013921      -0.76241927       0.67431641
N        1.56253998       0.81468403       9.66571000       0.45475835       0.59924225       0.01676770
N        4.76960001       0.91332000       9.63789001      -0.68233032      -0.15783054       0.27308369
N        7.85317995       0.96424599       9.68263001       0.65745730      -0.24210290      -0.62784144
N       11.02370002       0.90501500       9.59567999       0.22119358      -0.43310967      -0.05593122
N       12.58553144       3.60523000       9.57774999      -0.00514145       0.21871664       0.23871867
N        3.14661998       3.63088001       9.74066000       0.48856968      -0.53659608      -1.00212373
N        6.33096002       3.72493001       9.64142001      -0.93254970      -0.98046914      -0.12896762
N        9.43112005       3.66976002       9.62911003       0.35792944      -0.26834807       0.03569953
63
Lattice="12.6078568 0.0 0.0 0.0 5.4593644 0.0 0.0 0.0 10.2703028" Properties=species:S:1:pos:R:3:forces:R:3 tag=3 energy=-381.54246866 free_energy=-381.54246866 pbc="T T T"
Ga       1.58215995       0.79758901       2.58475001       0.03973465       0.49758733      -0.17361790
Ga       4.74761998       0.89699399       2.58192003       0.37096214      -0.48183088      -0.38094689
Ga       7.82021003       0.96807803       2.57084001       0.61312727      -0.61737201       0.18400325
Ga      11.04410003       0.92259999       2.54973002      -0.16554099      -0.03145087       0.11821877
Ga       0.02595693       3.58595998       2.49665002      -0.61747722      -0.12224809      -0.34965031
Ga       3.16037994       3.56291998       2.59134005       0.69548145       0.12384541      -0.02127889
Ga       6.30830005       3.64214999       2.59339997       0.04789169       0.10441727       0.02665693
Ga       9.45901002       3.67153999       2.59032000      -0.73824237       0.09905402      -0.32955444
Ga       0.01359757       1.78763999       5.09484005      -0.00439493      -0.46232419      -0.03734268
Ga       3.17803006       1.68662002       5.10693005      -0.00479958       0.42570448       0.34823829
Ga       6.33591995       1.89398000       5.19371996      -0.32566416      -0.89410598      -0.68006267
Ga       9.49801999       1.86530000       5.13191995      -0.85358465      -0.53733472      -0.23565987
Ga       1.49891998       4.41866001       5.14905996       0.46628513       0.07330374      -1.47312091
Ga       4.69701998       4.49666003       5.14519000       0.35807580       0.01529562      -0.57097357
Ga       7.83777996       4.60778998       5.16263997       0.40813472       0.46015868      -0.55044565
Ga      10.99340006       4.56765999       5.12636998       0.29702227      -0.50023850      -0.74942550
Ga       1.56836002       0.79700999       7.73455004       0.91246804       1.02023105      -0.84162027
Ga       4.73450995       0.89183402       7.69789995       0.29222644       0.20268957      -0.25411086
Ga       7.86406999       1.00362002       7.71924000      -0.19067413      -0.27948959       0.24269324
Ga      11.06229998       0.86523201       7.71823002      -0.59707077       0.14285677      -1.92450512
Ga       0.04490956       3.57777000       7.68034996      -0.69638423      -0.24752133       0.19694845
Ga       3.14231995       3.61484001       7.72426002       0.32582648      -0.98195692      -1.03934571
Ga       6.25131997       3.75897002       7.72532998       1.20393950      -0.74596110       0.22941068
Ga       9.46043004       3.65955002       7.62269001      -1.48057486      -0.20404720       0.63450951
Ga      12.53960127       1.74186999      10.19340001       1.91430501       0.69256593       0.65750516
Ga       3.14706000       1.77288000       0.04389723       0.57016855       0.48278800      -0.22478531
Ga       6.30836006       1.84057000       0.02769716      -0.33623189       1.01906427      -1.12632699
Ga       9.56942005       1.91112001      10.25340004      -2.54198618      -0.43475492       1.02513278
Ga       1.60311005       4.46532999      10.25849996       0.06319994       0.10739829       0.15662364
Ga       4.74901995       4.59425998       0.01339720       0.09901161      -0.07944107       0.73673921
Ga       7.91235001       4.60530001       0.06119724      -0.78173806       0.48179623      -1.34187047
Ga      11.05070000       4.58119998      10.20579996      -0.37324473      -1.26396439       0.83027883
N        0.04511986       1.72490999       1.82623002      -0.37914583       0.86274650       0.42102517
N        3.14065004       1.73571003       1.98301995      -0.13651180       0.36396394      -0.63794490
N        6.29722997       1.85398001       1.89433003      -0.55526641      -0.07668226       0.87105376
N        9.45580006       1.82481002       2.01378998       0.36868103       0.51923934      -1.51746712
N        1.62396004       4.47330001       1.91202998      -0.69750999      -0.23078302      -0.53631355
N        4.74263004       4.51125001       1.95143004      -0.73390596       0.25832422      -0.12429666
N        7.82506998       4.59154001       1.90425998       1.03091047      -0.18421407       1.44394658
N       11.01549999       4.58026997       1.88138000       0.85192136      -0.74104765      -0.37472132
N        1.55351994       0.77905801       4.50528996       0.02822943       0.39105389      -0.05028337
N        4.79552000       0.83119898       4.46398003      -0.24494400       0.80302323       1.03520158
N        7.86825000       0.95933398       4.49403997       0.44197497       0.06264625       0.26646357
N       11.03320004       0.90062698       4.47246001       0.21103978      -0.01503785       0.32986014
N       12.52857015       3.54945998       4.38381004       0.30818349       0.66851319       1.19689465
N        3.13352004       3.55950002       4.51106002      -0.34188140      -0.23004105       0.18067062
N        6.34294997       3.66506000       4.52638999      -0.93102214      -0.15048557      -0.49635274
N        9.40834005       3.67522997       4.50881000       0.40281961       0.16635812       0.15252888
N        0.05060403       1.76640001       7.04216002      -0.48301318      -0.07407607       0.65292846
N        3.15555996       1.74425000       7.07188998      -0.73682966       0.39339755      -0.05699004
N        6.28514005       1.93527000       7.08225004      -0.00565056      -0.85059688       0.59923684
N        9.47631002       1.81770002       7.07653996       0.55064037      -0.03097203      -0.10059827
N        1.55951006       4.49149001       7.01540003      -0.01399432      -0.26691989       1.38930738
N        4.68740006       4.49440001       7.03974999      -0.46455236       1.21529275       0.28107330
N        7.86304005       4.64581003       7.04539003       0.19121761      -0.46438708       0.90193103
N       11.03809996       4.45168999       7.04466002       1.24369418       1.27081181       0.52186605
N        1.57958000       0.84723003       9.64911001      -0.74624035       0.10798577      -0.20453003
N        4.72496000       0.90977998       9.61773002      -0.07225719       0.60272200       0.37384202
N        7.87411000       0.99965799       9.66886000       1.31483832      -0.30164607      -0.22380136
N       11.01930000       0.88583701       9.58910001       0.15207266       0.29603567      -0.07621296
N        3.22367996       3.65515000       9.60499998      -1.42660340      -0.96049731       0.76817357
N        6.29453996       3.76983000       9.64003999       0.74996768      -1.38490802       0.05639135
N        9.43933004       3.69838003       9.58890005       1.15288563      -0.08453430      -0.12519735
63
Lattice="12.6078568 0.0 0.0 0.0 5.4593644 0.0 0.0 0.0 10.2703028" Properties=species:S:1:pos:R:3:forces:R:3 tag=4 energy=-381.74778295 free_energy=-381.74778295 pbc="T T T"
Ga       1.57406003       0.95395498       2.50480001       0.15919076       0.48426081      -0.24206818
Ga       4.67407003       0.94564102       2.63788999       0.71880472      -0.14878033      -1.32549856
Ga       7.82307996       0.80919900       2.54878998       0.41208723       1.35169268       0.43733555
Ga      11.08650000       0.83534701       2.56785002      -1.30625168       1.63999070       0.10256209
Ga       0.06877699       3.72938998       2.51262003      -0.42258455      -0.58045834       0.18227941
Ga       3.15413994       3.67067998       2.61985000       0.92144209       0.54749365      -0.49501869
Ga       6.30844996       3.58909998       2.61324003      -0.48101510       0.14661367      -0.36656807
Ga       9.46281999       3.58748003       2.54229001      -0.25272683      -0.66180921       0.08358218
Ga      12.51682946       1.87136999       5.09998999       0.97401370       0.29456120       0.39553991
Ga       3.11071003       1.81572002       5.12106003       0.55826989       0.23076490       0.36210234
Ga       6.29775005       1.74102002       5.16972001       1.21983625       0.75050299       0.23160937
Ga       9.42501999       1.74513000       5.14198998      -0.99636205      -0.20429043       0.04204783
Ga       1.57112001       4.58445998       5.13758002      -0.32430624      -0.21906322       0.18522542
Ga       4.76615000       4.56997001       5.14896003       0.03835135      -0.21503896       0.43312800
Ga       7.88402999       4.43732001       5.15322005      -0.15189460       0.35907192       0.27425401
Ga      11.02220006       4.50579999       5.12525001      -0.02696795      -0.57092929      -0.07352868
Ga       1.59123004       1.02020000       7.67319002       0.49178667      -0.26359829       1.00903542
Ga       4.69545005       0.93379999       7.71923004       0.86491363      -0.47389546       0.00229690
Ga       7.89844998       0.72680098       7.70714004      -0.65075665       0.54448178      -0.37464037
Ga      11.10480006       0.92999901       7.63915002      -1.41957694      -1.02855044       1.12298725
Ga       0.00281042       3.66546000       7.75292002      -0.15804601       0.66424826      -0.08507336
Ga       3.10871005       3.71893999       7.63494998       0.40931892       0.11816311       0.27879278
Ga       6.23721002       3.55898002       7.76452002       0.50081849      -0.37318241      -0.46215270
Ga       9.48267005       3.54277002       7.69046004      -0.59789354      -0.25055409       0.03228673
Ga      12.56690144       1.88687999       0.00009716       0.80409980      -0.19356526      -0.02937172
Ga       3.24103001       1.89647002      10.25580000      -0.29633855      -0.00998513      -0.55774563
Ga       6.38881004       1.79591999       0.00139717      -0.76514574      -0.39849641      -0.19834452
Ga       9.44168998       1.77999999       0.00619720      -0.26250987      -0.60276491      -0.28564372
Ga       1.60366000       4.61202999      10.24289999       0.23546259       0.46716655      -0.60326765
Ga       4.74381001       4.52232002      10.23800003       0.21888434       0.91644211       0.62735281
Ga       7.93804999       4.45882003      10.26289997      -1.52161647       1.20744919       1.03847115
Ga      11.00650000       4.54742000       0.00169717      -0.15277703       0.47382287      -0.49328306
N       12.57268907       1.90447001       1.96910996       0.37228164      -0.51750847       0.05187102
N        3.12405999       1.92903999       1.89477997       0.29711821      -0.95496050       0.87341501
N        6.30866996       1.79486000       1.88689002      -0.42694203      -0.02369811       1.34864282
N        9.43886998       1.72680002       1.91473004       0.41915631       0.39061629       0.66071954
N        1.64586001       4.59791999       1.88710005      -0.74929960       0.14645138       0.82352377
N        4.73683005       4.58813998       1.92311995      -0.20731997      -0.33842726       0.65772404
N        7.87392000       4.51167999       2.01881001       0.40282661      -1.16213862      -1.59837177
N       11.04040001       4.54531001       1.93152999       0.27794871      -0.66245680       0.34796350
N        1.51760003       0.91157399       4.44146999      -0.21933458       0.54831432       0.41558690
N        4.75210005       0.93415299       4.56208001      -1.66137330      -0.45218340      -0.85509126
N        7.86233994       0.77549502       4.48579004       0.12005148       0.88890900       0.39289348
N       11.00510002       0.86545901       4.54274996       0.71118197      -0.13122085      -0.87315961
N        3.15469998       3.67839002       4.55254002      -0.71298362      -0.33497968      -0.43618806
N        6.28600999       3.59706001       4.56395002      -0.00581318      -0.59190029      -0.74836188
N        9.46057995       3.55141001       4.47840004       0.76010397       0.09378809       0.18571195
N       12.60662300       1.88314999       7.11317002       0.44773910       0.25201088      -1.64540358
N        3.18957999       1.91835001       7.06006999      -0.91336082      -0.90957497      -0.46950468
N        6.33752998       1.72262000       7.06965002      -0.22161800       0.26926997       0.54800654
N        9.43231994       1.67933002       7.07842004       0.71421552       0.82099120      -0.26417317
N        1.51738999       4.64759999       7.07308000      -0.01494059      -0.33141249      -0.61642979
N        4.72335994       4.54217999       7.06911001       0.00244824       0.45660231       0.09161572
N        7.85117001       4.36333001       7.08904005       0.47895055       0.62471086      -0.17902381
N       11.03520002       4.51264002       7.02557995       0.18220586       0.09758959       0.48970037
N        1.60822001       1.02101000       9.65809005      -0.36571202      -0.31159688      -0.30961884
N        4.79504002       0.92007198       9.64332002      -0.68338358       0.02336242      -0.06510074
N        7.86372995       0.82535102       9.59477004       1.00935539      -0.05202301       0.85309465
N       11.04759998       0.93515899       9.64197995      -0.05541311      -0.50135688      -0.58343792
N        0.00188210       3.72790001       9.66633002       0.01805343      -0.53079425      -0.09029156
N        3.15681003       3.74233998       9.53754997      -0.20565171      -0.84500849       0.82487811
N        6.32656001       3.60196001       9.69689998      -0.13153323       0.13113782      -0.60948133
N        9.42835994       3.58676998       9.64731003       1.62053168      -0.09427738      -0.47039366
63
Lattice="12.6078568 0.0 0.0 0.0 5.4593644 0.0 0.0 0.0 10.2703028" Properties=species:S:1:pos:R:3:forces:R:3 tag=5 energy=-381.9804265 free_energy=-381.9804265 pbc="T T T"
Ga       1.62114004       0.94066301       2.54498001      -0.04175068      -0.35318936      -0.02186388
Ga       4.71725005       0.95714701       2.54750999       0.20469302       0.06906030       0.01529703
Ga       7.95262001       0.79290799       2.52460999       0.07620943       0.80401727       0.29604089
Ga      11.05289994       0.89163502       2.63897998      -0.10239655      -0.45890702      -1.29597244
Ga       0.02761814       3.61530002       2.59039005      -0.20483167       0.18588286      -1.02141236
Ga       3.11201003       3.72028998       2.60333001      -0.39531731      -0.85681399      -0.96618640
Ga       6.26547002       3.66962998       2.58513997       0.67720096      -0.50020291      -0.41968885
Ga       9.48233998       3.62529000       2.52670996       0.56454167      -0.89935846      -0.75785099
Ga      12.59598965       1.75866998       5.13522001      -0.40873801       0.43681488       0.46143006
Ga       3.12519003       1.81099002       5.12318999       0.24389363      -0.75547407       0.34419780
Ga       6.30288006       1.80125002       5.15489000      -0.02207942      -0.44185202      -1.01585862
Ga       9.40518002       1.79820998       5.18088999       0.49957266      -0.02495140      -0.73053501
Ga       1.50996005       4.49704000       5.09289003       0.77525170       0.51075415       0.90584951
Ga       4.70161000       4.51692999       5.20881001       0.18626568       0.43413276      -1.02405208
Ga       7.89258001       4.50946000       5.12294997      -0.14211767      -0.21857399      -0.15436182
Ga      10.96829996       4.48430003       5.10509002       0.40322358       0.16635389       0.44927328
Ga       1.57483995       0.88378598       7.73809001      -0.79052088      -0.10313681      -0.61633580
Ga       4.68129004       0.86278698       7.74586997       0.31823167       0.71235611      -0.29707538
Ga       7.84004004       0.92258798       7.70880003       0.63615770      -0.46837787      -1.15924739
Ga      11.05159994       0.89885498       7.62679002      -0.20948275      -0.07101842       0.89906492
Ga       0.02171678       3.69939001       7.67371996      -0.39672185      -1.04552455      -0.37152827
Ga       3.16547995       3.55845002       7.73322004      -0.33807203       1.08739221       0.02769629
Ga       6.28473004       3.63786002       7.67860996       0.78383257      -0.15467981       0.54415723
Ga       9.45011001       3.62882003       7.71529004       0.07547662       0.05477664       0.36073594
Ga       0.02750001       1.85574000       0.00889716      -0.99862165      -0.22197729       0.22412395