63
Lattice="6.43258 0.0 0.0 0.0 11.1415596 0.0 0.0 0.0 10.4799004" Properties=species:S:1:pos:R:3:forces:R:3 tag=1 energy=-382.6504949 free_energy=-382.6504949 pbc="T T T"
Ga       1.56302997       0.94962699       2.56888003       0.89086176      -0.79079788       0.98390484
Ga       4.81349003       0.88614896       2.68510999       0.00064970      -0.51120607      -1.26746742
Ga       6.40092103       3.67855002       2.60299001       0.50430590       0.32303921       0.10435228
Ga       3.24326001       3.77458001       2.64641002      -0.72897301      -0.48663942      -0.00026016
Ga       1.61269997       6.47004995       2.54794004      -0.13078856       0.51007562       1.03831053
Ga       4.80778002       6.51033994       2.57717005       0.33815876      -0.13654879       0.57140692
Ga       0.01426753       9.25559004       2.61007002      -0.15337558       0.35203161       0.67496968
Ga       3.23534999       9.27018002       2.67880004       0.07304605       0.02836229      -0.73267235
Ga       6.38444102       1.81532996       5.26100998       1.01768093       0.65675528      -0.73247458
Ga       3.22902998       1.90313002       5.24310004      -0.78809792      -0.34475233      -0.84086882
Ga       1.55558001       4.68343001       5.22026004      -0.19857002       0.50900116      -0.12105715
Ga       4.80643002       4.69662005       5.22799997       0.15209809      -1.15218955       0.40704458
Ga       6.41612533       7.38768005       5.31517000       0.29486572       0.00173588      -1.19563128
Ga       3.26600001       7.37780005       5.18578001      -0.48066927      -0.04640651       0.68447290
Ga       1.57529002      10.14399995       5.22744998       0.51835994       0.51341673      -0.55585310
Ga       4.86190999      10.16909999       5.29541004      -0.13047805      -0.05521604      -0.87955763
Ga       1.64677001       0.85787602       7.80943000       0.16314274       0.31498914      -0.66070433
Ga       4.89249999       0.98608797       7.84222999      -0.57799030      -0.50599607      -0.41756980
Ga       0.05456172       3.75368000       7.90171998      -0.44362398       0.21131215      -1.32222197
Ga       3.23946002       3.80220996       7.87234000      -0.09178269      -0.49832742      -1.21361045
Ga       1.63519001       6.49956004       7.91561004      -0.62339238       0.13852208      -0.88484711
Ga       4.81712997       6.50651003       7.95355001       0.42377557      -0.43738691      -1.75341366
Ga       6.35017009       9.19656996       7.83792998       0.78361073       0.32045871       0.07143981
Ga       3.21354998       9.21579996       7.81770000      -0.26317765       0.17581096      -0.10299563
Ga       6.38480748       1.79173002       0.01139962       0.06995239       0.70066519      -0.38696658
Ga       3.21227002       1.85012004       0.03089957       0.22357946       0.00894940      -0.08228351
Ga       1.58735001       4.63750004      10.43390003      -0.21814998       0.17255957       0.67489512
Ga       4.76886002       4.66564997      10.44790002       0.35278470      -0.10896450       0.39806178
Ga       0.04046080       7.40044995       0.04759960      -0.49832568       0.12126921       0.35551828
Ga       3.22228002       7.44894002      10.43359999       0.16728807       0.73459907       0.72477151
Ga       1.64646999      10.16270005      10.47970002      -0.01007329      -0.12561998       0.25588486
Ga       4.92616998      10.19090001      10.43530004      -0.70695194      -0.55251674       0.55852052
N        6.42532231       1.79516998       1.93462001      -0.60995651       0.63991020      -0.00919639
N        3.22983000       1.86186001       1.99646001      -0.17010680       0.01275702      -0.31054952
N        1.60530000       4.62066002       1.93215995      -0.20177076      -0.15563366      -0.00685464
N        4.81973002       4.63531997       1.95501997       0.16419350       0.18601218      -0.45946909
N        6.41471962       7.45540001       2.02225995       0.36984954      -1.05399720      -1.02091824
N        3.23399002       7.43263000       1.92142005      -0.40508276      -0.02019508       0.28508002
N        1.59950997      10.18620006       1.97592999       0.51859571       0.43668939      -0.40918588
N        4.85996999      10.15590003       1.95144004      -0.41537757       0.71101244       0.02300422
N        1.55885002       0.87317896       4.55596001       0.52994966       0.55290955       0.42346575
N        4.83009001       0.89682703       4.56996996      -0.49313505       0.08548422       1.07158130
N        6.41054050       3.71535995       4.57514001      -0.31411610      -0.45491060       0.03523401
N        3.14815997       3.81292001       4.61929005       0.91229110      -1.12447677      -0.46104872
N        1.59335000       6.58117999       4.59857998       0.30416554      -1.11568684      -0.66564213
N        4.86683998       6.44480005       4.58134998      -0.36922060       1.19693366      -0.67707417
N        0.03927257       9.19693998       4.59500005      -1.00332163       0.64246031      -0.01134391
N        3.23074999       9.25161005       4.62403996       0.32660418       0.21194033       0.05852818
N        0.05460251       1.90623996       7.20765001       0.17978017      -0.60075538       0.57743726
N        3.28007000       1.90513004       7.17794997      -0.55470405      -0.37516252       0.96680987
N        1.61345998       4.70422996       7.16629004       0.02140500      -0.63043846       1.03302231
N        4.85316001       4.69210003       7.19412004       0.10372506      -0.58146801       0.73012089
N        6.40716719       7.36789999       7.20596998       0.23385232       0.21006431       1.05455542
N        3.23530001       7.31372004       7.23158003      -0.04699391       1.38680347      -0.40227093
N        1.55209002      10.10789996       7.15973004       0.40125624       0.71771506       1.12537236
N        4.80931001      10.22230005       7.23089998       0.03242442       0.04931528       0.09706691
N        4.80401999       0.87052905       9.77326995       0.18759257       0.66452566       0.59067843
N        6.39855191       3.68998003       9.80952999       0.08969925      -0.10044538       0.72589327
N        3.16232998       3.69665004       9.79952997       0.36700945      -0.12411508       0.35187996
N        1.62891998       6.55852998       9.85957005      -0.18551205      -1.21634947      -0.18188049
N        4.82425000       6.57120005       9.82017002       0.33776384      -0.93738147       1.18898178
N        0.07926521       9.19205997       9.81138996      -0.45305332       1.17399400      -0.12495718
N        3.24699000       9.34288003       9.78840995       0.21245336      -0.42849619       0.04858126
63
Lattice="6.43258 0.0 0.0 0.0 11.1415596 0.0 0.0 0.0 10.4799004" Properties=species:S:1:pos:R:3:forces:R:3 tag=2 energy=-382.82360941 free_energy=-382.82360941 pbc="T T T"
Ga       1.57872997       0.89323198       2.64011998       0.07734028       0.17440295       0.21861761
Ga       4.78460003       0.95437095       2.63267999       0.15132964      -0.51818702      -0.55373892
Ga       0.00254872       3.66697004       2.54773998      -0.15618821       0.39642782       0.45017948
Ga       3.18077000       3.65489002       2.62754002      -0.20273639       1.00182968      -0.31613686
Ga       1.64027998       6.51631004       2.60246004      -0.08131326      -0.00783472       0.21591668
Ga       4.87657003       6.46683995       2.61791999      -0.17104436       0.47450196      -0.72367517
Ga       0.03934378       9.32215996       2.64612004      -0.86401547      -0.32845969      -0.06532333
Ga       3.17957997       9.31573997       2.55776997       0.29557247      -0.57223081      -0.07407703
Ga       6.37037393       1.88549995       5.23310001       0.71506707      -0.63014638       0.21225161
Ga       3.20159998       1.86938000       5.26117996      -0.47858938      -0.21880883       0.26067374
Ga       1.57730998       4.57733996       5.30804996       0.32485689       1.28099144      -0.11407589
Ga       4.81877002       4.63477002       5.18300001      -0.41392359       0.19124016       0.25509124
Ga       6.43232077       7.38193000       5.19248998       0.39394870       0.19611385       0.82824216
Ga       3.26646001       7.49025003       5.27680004      -0.50336323      -1.14702069      -0.16191734
Ga       1.67943999      10.19259999       5.28914998      -0.80852825      -0.88217753       0.26476789
Ga       4.81579000      10.15929999       5.23754003       0.54020368      -0.34137435      -0.09814921
Ga       1.65942000       0.89878304       7.86003995      -0.23708655      -0.02325546       0.02016899
Ga       4.84514000       0.91629701       7.80788002       0.21910890       0.32403992       0.62709149
Ga       0.04993773       3.71552997       7.79702997      -0.23852934       0.12869780       0.82276991
Ga       3.31050999       3.74064995       7.91918002      -0.48140895       0.17038219       0.00094225
Ga       1.58981002       6.48822005       7.92641995       0.31244894       0.46198100      -0.16820638
Ga       4.84908002       6.49867005       7.86014999      -0.19276955      -0.13225699      -0.19493489
Ga       6.36886240       9.25742995       7.87954996       0.87503214       0.07864200      -0.14114856
Ga       3.19297003       9.29207998       7.83238003      -0.37565395      -0.66871227       0.58493976
Ga       6.41812130       1.83862005      10.46499997      -0.53345532       0.18602886      -0.49079029
Ga       3.15386998       1.83171997       0.01279963       0.43372041      -0.12531989      -0.82198254
Ga       1.48378998       4.61263999       0.02559957       1.37284864       0.55459059      -0.69481525
Ga       4.78968003       4.63136004       0.00569960      -0.40252185      -0.11195170       0.10085465
Ga       0.03782878       7.42926002      10.44529996      -0.42442102      -0.13530342       0.45743007
Ga       3.21836000       7.41751002      10.46240001       0.66371706      -0.21326163       0.35598511
Ga       1.71434001      10.17579997      10.46140002      -1.04568661       0.32411342       0.08585875
Ga       4.88567001      10.21079995      10.47509998       0.02590601      -0.09304650      -0.61160242
N        6.41319819       1.80959997       1.95969998      -0.04073844       0.12063905       0.50445400
N        3.18088997       1.84797005       1.96834003      -0.08372222      -0.50248124       0.64817571
N        1.57246001       4.61519999       1.92573001       0.29763226       0.19962630       1.18768553
N        4.79956999       4.57249996       2.00632998       0.07068753       0.47531742      -0.32077714
N        0.01874589       7.51511999       1.93878996       0.07381941      -1.09101690       0.53472243
N        3.27817000       7.43690001       1.96456003      -0.43148513      -0.08832551       0.00271589
N        1.55998003      10.24849998       1.95215005       0.84347597      -0.30543980      -0.12234587
N        4.79529001      10.23310000       1.95163999       0.39179879       0.28861459       0.78828117
N        1.57008001       0.79779795       4.66250999       0.22708390       2.41055685      -1.03208106
N        6.40479872       3.70111000       4.54602999       0.22621523      -0.32939862       0.11042614
N        3.16744002       3.69028999       4.59394001       0.35821681      -0.24342500      -0.10001668
N        1.65122997       6.52119004       4.64782000      -0.09010675      -0.74489630      -0.68975856
N        4.82579002       6.48266999       4.54809998      -0.00899965       0.20124093       0.62976060
N        0.07612868       9.28260999       4.64245995      -1.09217958       0.22212566      -0.53072918
N        3.19901003       9.29393995       4.51456996       0.83844186       0.28223022       0.65097641
N        0.05910538       1.85065004       7.20769004      -0.47026297      -0.19792596      -0.48374738
N        3.27054000       1.91018998       7.24632996      -0.33255379      -0.76290545      -0.73676339
N        1.67424002       4.66685003       7.30343997      -0.22876139      -0.65671990      -0.94206781
N        4.87555999       4.62984000       7.13998004      -0.08861563       0.18838775       0.48202201
N        0.01968691       7.42971002       7.23569003      -0.39515526      -0.19893461      -0.52858314
N        3.19742003       7.41793997       7.24971004       0.49958327       0.17090485      -0.33620439
N        1.58325999      10.17310003       7.21775002       0.08750312       0.48377158       0.23447964
N        4.77220001      10.20239999       7.21091995       0.50733839       0.29487819      -0.63853729
N        1.53256997       0.87809305       9.83576998       1.05405752       0.30616538      -0.15414449
N        4.81552999       0.93489205       9.76598999      -0.27897380      -0.24765089       0.74315132
N        6.39589062       3.73450995       9.80537995      -0.51604506      -0.87677610      -0.11754410
N        3.13360999       3.68233001       9.87809998       0.57604333       0.28204344      -0.14166052
N        1.63990001       6.49753996       9.90374995      -0.44769868      -0.57307146      -0.65793717
N        4.83996003       6.47635005       9.81646999      -0.00829195       0.09162931       0.27892098
N        0.12081299       9.25323003       9.82695000      -1.32336641       0.54567463      -0.05291274
N        3.23259003       9.24479999       9.79776001       0.99519379       0.46052584       0.25883174
63
Lattice="6.43258 0.0 0.0 0.0 11.1415596 0.0 0.0 0.0 10.4799004" Properties=species:S:1:pos:R:3:forces:R:3 tag=3 energy=-382.56325247 free_energy=-382.56325247 pbc="T T T"
Ga       1.59675001       0.93530295       2.55272998       0.15569811       0.02811175       0.73641196
Ga       4.80783000       0.98923000       2.61753999       0.41816573      -1.04819948      -0.45907839
Ga       0.02766479       3.69873006       2.61984997      -0.77966531       0.22390385      -0.18925940
Ga       3.14832999       3.64740000       2.60682995       0.64701951       1.30829793      -0.32799530
Ga       1.70453998       6.58794002       2.63193005      -0.47419979      -0.91780365      -0.31603604
Ga       4.89613003       6.42711004       2.65805005      -0.07799657       0.28376823      -0.80489182
Ga       0.01485251       9.33890996       2.60850003      -0.31422269       0.12229224      -0.15494482
Ga       3.20896998       9.25408002       2.61829004       0.44236868       0.45839241      -0.52983950
Ga       6.40297669       1.83755002       5.18825998      -0.42205629       0.11859148       1.27535429
Ga       3.19088002       1.78835000       5.33014997       0.15852904      -0.18251929      -0.29627978
Ga       1.64025001       4.56058005       5.16703996      -0.15961584       0.95326244       0.19900548
Ga       4.79293999       4.56928996       5.26982997       0.18662611       0.29409093       0.51062185
Ga       6.42492562       7.43073995       5.28123000       0.41468028       0.18909107      -0.52742849
Ga       3.23582002       7.40590998       5.20767997      -0.24358803       0.07753348       0.13375045
Ga       1.65401000      10.22849999       5.20753996      -0.06634047       0.16784052       0.72774709
Ga       4.84136002      10.20369999       5.31533003       0.36920620      -0.28413870      -0.73985889
Ga       1.61720998       0.93212204       7.88072004      -0.42855391      -0.08446134      -0.42659120
Ga       4.81441999       0.86009798       7.93306997       0.53653039       0.25634952       0.22895567
Ga       0.07477701       3.66624996       7.87146996      -0.86233557      -0.33310309      -0.05478401
Ga       3.26035999       3.64986006       7.80983997      -0.38296295       0.61517690       1.10704745
Ga       1.60820000       6.47318997       7.84160004      -0.42159052       0.01741106      -0.52602145
Ga       4.81168003       6.53640005       7.78846003      -0.26357138      -0.40441077       0.70103387
Ga       6.37522371       9.33211996       7.94647995       0.93356921      -0.21886134      -0.49138682
Ga       3.17315003       9.28691999       7.85618995      -0.60736961      -0.06901266      -0.21293497
Ga       0.03883818       1.87365001      10.43469996      -1.17700826       0.47864232       0.25598361
Ga       3.15837002       1.83764996       0.02229955       0.51995580       0.53311025      -0.48205738
Ga       1.53421999       4.67833998       0.00079962       0.60077310      -1.37626780       0.08992698
Ga       4.72251000       4.63400995      10.47090005       0.21002392      -0.21336052      -0.43615467
Ga       0.05442818       7.42719003       0.04339957      -1.12155124      -0.10622016      -0.15082064
Ga       3.18327999       7.32322000      10.43000004       0.81428791       1.41550932       0.18357805
Ga       1.69528002      10.27629995      10.42739998      -0.42230839      -1.41548291       0.42325307
Ga       4.87638998      10.23669995      10.45380000      -0.69967916      -0.81061075       0.74947592
N        0.05215832       1.89659003       1.91411000      -0.78115258      -0.44942621       0.65978852
N        3.20562002       1.89273995       1.95677001      -0.02073665      -0.79997855       0.68024844
N        1.59995999       4.62430999       2.00173999       0.12393772       0.85089721       0.06704923
N        4.79088003       4.57770998       1.95360005       0.11327727       0.15467596       0.87613245
N        0.05851197       7.45753997       2.03976003      -0.15891930      -0.42134893      -0.57631339
N        3.32385998       7.39500005       1.93215000      -0.50468122       0.15439102       0.25953160
N        1.63379999      10.26919999       1.91201004       0.03111261      -0.72487713       0.59948598
N        4.78646001      10.20669997       1.95090996       0.52361105       0.59615324       0.39184909
N        1.56439001       1.00791996       4.59536999       0.98926475      -0.66505850      -0.62785340
N        4.78977999       0.90625702       4.61040005      -0.14477841       0.54599785      -0.31031644
N        6.38862399       3.70824996       4.61538000       0.33617123      -0.49668725      -0.69259569
N        1.62073002       6.50737005       4.55684001       0.02620833      -0.65445788       0.68751732
N        4.82965999       6.37924000       4.59401001      -0.06777429       0.91698116       0.45511249
N        0.08168592       9.34133002       4.59094998      -1.16384085      -0.68166869       0.00149696
N        3.25882003       9.28198996       4.58918999      -0.01615327      -0.09435007       0.01883762
N        6.38729682       1.77146998       7.22868998       0.60594822       0.77402748      -0.13614546
N        3.28536999       1.80324003       7.28290995      -1.02579257       0.20664892      -0.88312396
N        1.61881002       4.57402000       7.13269001       0.55444299       0.35425984       0.25415635
N        4.85789001       4.58037002       7.26034997      -0.17301855       0.63057792      -0.94300139
N        6.41283577       7.50811998       7.23524998       0.18296342      -0.92596169      -0.16460187
N        3.13768998       7.45585002       7.16161998       0.77784517      -0.56081968       0.21294446
N        1.56478002      10.26869996       7.20145000       0.25535572      -0.63472029       0.07768614
N        4.77619001      10.17559998       7.25858998       0.23621427       0.33520289      -0.21039100
N        1.58792000       0.92732805       9.83469003       0.18470190       0.41157914      -0.34114374
N        4.77078001       0.93745896       9.92413996       0.78148260       0.11535077      -0.86324055
N        6.37011682       3.77280995       9.84294997       0.42326022      -0.78105723      -0.21474581
N        3.15589000       3.64363003       9.81235998      -0.31232054       0.79921872      -0.01914164
N        1.58502000       6.44049997       9.79805995      -0.09638883       0.69052218       0.03486327
N        4.79010998       6.46504003       9.78977003       0.63330931       0.33568303       0.12626356
N        0.04525790       9.27950996       9.89760003       0.08640242       0.22902215      -0.41574784
N        3.23325001       9.27373006       9.77432004       0.11722982      -0.28770060       0.79961656
63
Lattice="6.43258 0.0 0.0 0.0 11.1415596 0.0 0.0 0.0 10.4799004" Properties=species:S:1:pos:R:3:forces:R:3 tag=4 energy=-382.94057803 free_energy=-382.94057803 pbc="T T T"
Ga       1.55165003       0.91689699       2.55006002       0.62657577       0.91231655       0.56664736
Ga       4.81833003       0.96556299       2.57349003       0.06968142       0.01094012       0.18559327
Ga       6.41778667       3.78662003       2.61023005       0.09711740      -0.83280832       0.11046013
Ga       3.20170001       3.78780003       2.70490998      -0.35168999      -0.86207774      -1.08692374
Ga       1.66489997       6.50371996       2.61601003      -0.16961411      -0.53919184       0.31677794
Ga       4.89672002       6.46708005       2.63479997      -0.14684834      -0.45820372       0.03812539
Ga       0.03387287       9.25547004       2.61670998      -0.54985025       0.38699986       0.24046376
Ga       3.23543998       9.18773003       2.61356999      -0.10968458       1.03404853      -0.16419515
Ga       6.41669912       1.84321004       5.22913002       0.05607437      -0.49609300      -0.10888110
Ga       3.20471998       1.83463004       5.22150998      -0.50793566      -0.14309719       0.14259331
Ga       1.61376997       4.61197996       5.31243003      -0.38428881       0.00206770      -0.54064434
Ga       4.83724002       4.58008001       5.24548002       0.00106246      -0.16090629       0.06517240
Ga       6.39526100       7.45607998       5.27681996       0.61526051      -0.67566061      -1.00612191
Ga       3.23851000       7.37209000       5.20014995      -0.39666871       0.27127964      -0.05946770
Ga       1.59681999      10.18099996       5.23709998      -0.30704435       0.52609102      -0.47219787
Ga       4.79998997      10.18599995       5.25254997       0.18489025       0.70829877      -1.33686982
Ga       1.63591001       0.93060400       7.92838001      -0.05134590       0.24430211      -0.81773246
Ga       4.82667997       0.86700497       7.88793996       0.26203388       1.28017076      -0.60849845
Ga       0.00298961       3.72990002       7.85577002       0.12761153      -0.85966637      -0.28624801
Ga       3.24681002       3.71560996       7.88919996      -0.36851142      -0.37160685      -0.51907917
Ga       1.66652999       6.50948004       7.88527995      -0.77033700      -0.19388625      -1.32401540
Ga       4.81199999       6.43507002       7.80674997       0.38403125       0.31134202       0.12639904
Ga       6.32476198       9.30847000       7.87885001       1.58967359      -0.66099393      -0.44394176
Ga       3.22839998       9.25604996       7.80308001      -0.95550737      -0.17211271       0.29227739
Ga       6.41920853       1.89793003      10.41589996      -0.16950166       0.37115997       1.07133282
Ga       3.24034000       1.82906004       0.00069964      -0.31280870       0.51814788       0.72441304
Ga       1.58469998       4.64384003       0.00909959       0.19321113      -0.36319103      -0.64689209
Ga       4.78709998       4.63747999      10.44510000       0.33346063      -0.50941322       0.25979308
Ga       6.42474595       7.41744005       0.00939963      -0.32827044      -0.51065835      -0.36792120
Ga       3.18831001       7.39468999       0.03209962       0.83252859       0.59435759      -0.87433494
Ga       1.63890997      10.23369998      10.45929995       0.43536947       0.10276960       0.38234389
Ga       4.91565998      10.18389999       0.01559965      -0.49268231       0.07425294       0.38580380
N        0.00428448       1.94155001       1.92744997      -0.29293445      -0.70600122      -0.04642992
N        3.22097002       1.91860999       1.97642003      -0.43535788      -0.50681363      -0.14655940
N        1.57969003       4.67259005       1.91900998       0.38695843       0.14039723       0.76772391
N        4.78644000       4.60039998       1.93164005       0.34640616       1.01635187       0.29788680
N        0.06623312       7.42668999       1.95846995      -0.36809641      -0.04289080      -0.20083926
N        3.29179003       7.35966995       1.94880004      -0.31749554       0.40474127       0.35934617
N        1.58107001      10.20360005       1.96009004       0.61625940      -0.62990957      -0.61957661
N        4.83046001      10.16579997       1.99708000       0.25065803       0.21605273      -0.66623066
N        1.56816999       0.89703003       4.54472000       0.27137876      -0.05059372       0.17943414
N        4.77266997       0.92519600       4.54529996       0.59810710      -0.39188630       0.58956841
N        6.42161811       3.67498995       4.58459005       0.37738989       0.51840545       0.00992053
N        3.20434000       3.71442996       4.62137995      -0.04874442      -0.16632836       0.23525230
N        1.63399001       6.43984997       4.58049000      -0.60408724       0.66350259       0.17630208
N        4.82630997       6.40691998       4.62911998       0.46603150       0.92098891      -0.72203918
N        6.39370187       9.27550000       4.55888998       0.32413007      -0.19409961       0.50213950
N        3.21225002       9.28467998       4.55931001      -0.14914079      -0.75815519       0.45562004
N        0.09219849       1.84537997       7.19954004      -1.37652282      -0.14179660       0.46553063
N        3.21397003       1.87328000       7.24670996       0.55265865      -0.71621693      -0.21762951
N        1.60237999       4.59883003       7.25786005       0.52994563       1.02992201      -0.10980608
N        4.84400001       4.58940995       7.20002997      -0.27468511       0.38674085       0.02150987
N        6.39504860       7.44556001       7.18733001       0.56507521      -0.08406462       1.28476589
N        3.25294998       7.39296004       7.15467003      -0.40987142       0.30303333       0.41800590
N        1.56443999      10.24219998       7.20486005       0.18537930      -0.84838063       0.82579133
N        4.79945999      10.17359995       7.17965002      -0.22313942       0.62647501       0.49307630
N        1.56129002       0.96031097       9.89197002       0.74798607      -0.86672453      -0.59112763
N        4.84701001       0.89792202       9.87776001       0.02654562      -0.34768425      -0.72329215
N        6.43216047       3.72507996       9.77542997      -0.25914420       0.35361442       0.69150831
N        3.20652000       3.67469002       9.80843002      -0.13803062       0.46964895       0.50057606
N        1.60883998       6.55026996       9.78450996      -0.29764699      -0.15710808       0.91231076
N        4.80501002       6.46963002       9.77922002       0.16661530       0.76619434       0.40461113
N        3.28493000       9.32451005       9.79134003      -0.65262045      -0.74639260       0.20841882
63
Lattice="6.43258 0.0 0.0 0.0 11.1415596 0.0 0.0 0.0 10.4799004" Properties=species:S:1:pos:R:3:forces:R:3 tag=5 energy=-382.94052028 free_energy=-382.94052028 pbc="T T T"
Ga       1.56930997       0.91482198       2.62877004       0.28966814       0.30227505       0.48536138
Ga       4.81302000       0.94243199       2.63619002      -0.30218007      -0.24282444       0.22486252
Ga       6.37379709       3.71205001       2.55897003       0.23551287       0.30437925       0.51490453
Ga       3.21805999       3.73507003       2.66081999      -0.39341975      -0.08751685      -0.60438701
Ga       1.60386000       6.53191000       2.59239001       0.33637013      -0.95907553       0.49456773
Ga       4.89051998       6.59578000       2.53772004      -0.76922791      -1.29545819       0.65928937
Ga       0.05732458       9.25800998       2.67602004      -0.76381045       0.61484046      -0.09772823
Ga       3.24727001       9.25063995       2.60370998       0.11339773       0.96369732       0.59903020
Ga       0.00732555       1.84931004       5.20448003      -0.61257206      -0.16749135       0.00156424
Ga       3.23140997       1.87887005       5.21382999      -0.04889631      -0.95204804       0.05587679
Ga       1.60926999       4.61781001       5.30913997       0.34084759       0.00974685      -1.69670456
Ga       4.86757999       4.67550000       5.24655002      -0.35333398      -0.60527927      -0.17412038
Ga       6.38996281       7.33383000       5.23191002       0.68793570       0.93839391       0.04619999
Ga       3.22004997       7.41549997       5.25100995      -0.22235433       0.06513692      -0.71403998
Ga       1.58746998      10.14050005       5.22216005       0.00257628       0.47876777      -0.05716059
Ga       4.76025001      10.13399995       5.25786004       0.85345500       1.20778411      -0.36737935
Ga       1.65462998       0.89726400       7.81183995      -0.37704418       0.41290341      -0.02950763
Ga       4.85390001       0.98548097       7.89007000      -0.32282804      -0.19398890      -1.25665358
Ga       0.01451023       3.68710997       7.82934003      -0.21148884      -0.36481422      -0.07960069
Ga       3.18672998       3.73678996       7.92731001       0.14136374      -0.51450723      -0.96027277
Ga       1.62664999       6.49306005       7.88843000      -0.27539281      -0.06413997      -0.48194176
Ga       4.88484001       6.41705000       7.85643004      -0.90337061       0.29869803      -0.00493607
Ga       6.38352958       9.21335996       7.83481001       0.61078709       0.76102883      -0.05374205
Ga       3.22560000       9.27470996       7.82934003       0.01595406      -0.06340074      -0.36738736
Ga       6.41371028       1.81431998      10.46979998       0.30363259       0.47319786       0.29440796