63
Lattice="6.43258 0.0 0.0 0.0 11.1415596 0.0 0.0 0.0 10.4799004" Properties=species:S:1:pos:R:3:forces:R:3 tag=1 energy=-387.50868133 free_energy=-387.5092403 pbc="T T T"
Ga       1.56302997       0.94962699       2.56888003       0.89200234      -0.75863055       0.88298411
Ga       4.81349003       0.88614896       2.68510999      -0.00205958      -0.45831413      -1.34956828
Ga       6.40092103       3.67855002       2.60299001       0.48612835       0.30840386      -0.01438869
Ga       3.24326001       3.77458001       2.64641002      -0.70997212      -0.49924653      -0.11013114
Ga       1.61269997       6.47004995       2.54794004      -0.12515695       0.46948462       0.91057306
Ga       4.80778002       6.51033994       2.57717005       0.33954967      -0.18114810       0.46197268
Ga       0.01426753       9.25559004       2.61007002      -0.13334020       0.33618721       0.57474116
Ga       3.23534999       9.27018002       2.67880004       0.05280373       0.01960179      -0.81724187
Ga       6.38444102       1.81532996       5.26100998       0.98972706       0.62520005      -0.57565852
Ga       3.22902998       1.90313002       5.24310004      -0.76770364      -0.36950666      -0.70014245
Ga       1.55558001       4.68343001       5.22026004      -0.20677909       0.43528740       0.02735195
Ga       4.80643002       4.69662005       5.22799997       0.14530430      -1.15852553       0.53638515
Ga       6.41612533       7.38768005       5.31517000       0.24846743       0.01620800      -1.02125900
Ga       3.26600001       7.37780005       5.18578001      -0.44980110       0.00187280       0.82608807
Ga       1.57529002      10.14399995       5.22744998       0.52609854       0.55436411      -0.40106337
Ga       4.86190999      10.16909999       5.29541004      -0.15528968       0.01505285      -0.71819141
Ga       1.64677001       0.85787602       7.80943000       0.16056525       0.32701341      -0.62834472
Ga       4.89249999       0.98608797       7.84222999      -0.56855896      -0.48656555      -0.30014750
Ga       0.05456172       3.75368000       7.90171998      -0.42963471       0.14621859      -1.15887947
Ga       3.23946002       3.80220996       7.87234000      -0.09103241      -0.55562504      -1.04648977
Ga       1.63519001       6.49956004       7.91561004      -0.61123518       0.12207235      -0.70792858
Ga       4.81712997       6.50651003       7.95355001       0.42306695      -0.44562008      -1.57440452
Ga       6.35017009       9.19656996       7.83792998       0.78883491       0.34544658       0.22139521
Ga       3.21354998       9.21579996       7.81770000      -0.26284480       0.19507388       0.02758104
Ga       6.38480748       1.79173002       0.01139962      -0.00944058       0.73858852      -0.42273886
Ga       3.21227002       1.85012004       0.03089957       0.29927056       0.04507341      -0.11865445
Ga       1.58735001       4.63750004      10.43390003      -0.21934184       0.16485782       0.61024170
Ga       4.76886002       4.66564997      10.44790002       0.35182767      -0.12161339       0.35007504
Ga       0.04046080       7.40044995       0.04759960      -0.49566424       0.12203032       0.27319637
Ga       3.22228002       7.44894002      10.43359999       0.16620384       0.72842839       0.65320163
Ga       1.64646999      10.16270005      10.47970002      -0.01180881      -0.19084328       0.19735905
Ga       4.92616998      10.19090001      10.43530004      -0.69562352      -0.53761008       0.47798056
N        6.42532231       1.79516998       1.93462001      -0.59576362       0.61685982       0.06275126
N        3.22983000       1.86186001       1.99646001      -0.18572832      -0.00540361      -0.24003869
N        1.60530000       4.62066002       1.93215995      -0.19958477      -0.13014799       0.08089676
N        4.81973002       4.63531997       1.95501997       0.15901413       0.20472247      -0.36880698
N        6.41471962       7.45540001       2.02225995       0.36294739      -1.02868494      -0.92333121
N        3.23399002       7.43263000       1.92142005      -0.39767212       0.00347311       0.36846756
N        1.59950997      10.18620006       1.97592999       0.51469356       0.43656150      -0.33062208
N        4.85996999      10.15590003       1.95144004      -0.41103513       0.68858599       0.08477681
N        1.55885002       0.87317896       4.55596001       0.52138341       0.54558939       0.38595885
N        4.83009001       0.89682703       4.56996996      -0.47093261       0.05697020       1.03729926
N        6.41054050       3.71535995       4.57514001      -0.28422580      -0.42707286       0.01052701
N        3.14815997       3.81292001       4.61929005       0.89467152      -1.07201966      -0.48467383
N        1.59335000       6.58117999       4.59857998       0.29813659      -1.07682354      -0.72199307
N        4.86683998       6.44480005       4.58134998      -0.35788107       1.18561059      -0.70761294
N        0.03927257       9.19693998       4.59500005      -0.96662416       0.58779980      -0.07041232
N        3.23074999       9.25161005       4.62403996       0.30660984       0.17676794       0.01800274
N        0.05460251       1.90623996       7.20765001       0.18093077      -0.57773663       0.46682155
N        3.28007000       1.90513004       7.17794997      -0.56556236      -0.35579150       0.85335516
N        1.61345998       4.70422996       7.16629004       0.00648728      -0.58395184       0.85666265
N        4.85316001       4.69210003       7.19412004       0.09182886      -0.53931996       0.56215021
N        6.40716719       7.36789999       7.20596998       0.22827103       0.19117263       0.88912463
N        3.23530001       7.31372004       7.23158003      -0.04780250       1.36637255      -0.56483940
N        1.55209002      10.10789996       7.15973004       0.40404349       0.70590422       0.99412554
N        4.80931001      10.22230005       7.23089998       0.03844360       0.02421941      -0.03945938
N        4.80401999       0.87052905       9.77326995       0.18576524       0.64931433       0.57531030
N        6.39855191       3.68998003       9.80952999       0.11055700      -0.09764704       0.68842655
N        3.16232998       3.69665004       9.79952997       0.34892101      -0.12103629       0.31333527
N        1.62891998       6.55852998       9.85957005      -0.18557861      -1.20643038      -0.20806187
N        4.82425000       6.57120005       9.82017002       0.33533746      -0.92772536       1.15313381
N        0.07926521       9.19205997       9.81138996      -0.44772525       1.17540189      -0.13732159
N        3.24699000       9.34288003       9.78840995       0.20351100      -0.41875127       0.03015322
63
Lattice="6.43258 0.0 0.0 0.0 11.1415596 0.0 0.0 0.0 10.4799004" Properties=species:S:1:pos:R:3:forces:R:3 tag=2 energy=-387.64346713 free_energy=-387.64346789 pbc="T T T"
Ga       1.57872997       0.89323198       2.64011998       0.07524671       0.22635841       0.32797788
Ga       4.78460003       0.95437095       2.63267999       0.15829001      -0.46810267      -0.48313659
Ga       0.00254872       3.66697004       2.54773998      -0.14528138       0.29520165       0.57271244
Ga       3.18077000       3.65489002       2.62754002      -0.19545584       0.90872543      -0.18074961
Ga       1.64027998       6.51631004       2.60246004      -0.06489486      -0.15181385       0.37411998
Ga       4.87657003       6.46683995       2.61791999      -0.17646060       0.32804843      -0.57518508
Ga       0.03934378       9.32215996       2.64612004      -0.85049515      -0.23937412       0.07479298
Ga       3.17957997       9.31573997       2.55776997       0.29325116      -0.49836427       0.05488480
Ga       6.37037393       1.88549995       5.23310001       0.74337944      -0.65621592       0.16764196
Ga       3.20159998       1.86938000       5.26117996      -0.50905193      -0.24429454       0.21169326
Ga       1.57730998       4.57733996       5.30804996       0.32372749       1.20502477      -0.19173437
Ga       4.81877002       4.63477002       5.18300001      -0.41735470       0.11631891       0.18091322
Ga       6.43232077       7.38193000       5.19248998       0.39895290       0.28970772       0.76150409
Ga       3.26646001       7.49025003       5.27680004      -0.49821064      -1.05249373      -0.24352000
Ga       1.67943999      10.19259999       5.28914998      -0.79934363      -0.82687883       0.19443851
Ga       4.81579000      10.15929999       5.23754003       0.53893661      -0.31390866      -0.14845274
Ga       1.65942000       0.89878304       7.86003995      -0.24308192       0.03035495      -0.03494532
Ga       4.84514000       0.91629701       7.80788002       0.22579411       0.34751319       0.54937795
Ga       0.04993773       3.71552997       7.79702997      -0.22547699       0.04335722       0.75017836
Ga       3.31050999       3.74064995       7.91918002      -0.48944943       0.09863345      -0.08681285
Ga       1.58981002       6.48822005       7.92641995       0.31722469       0.36614553      -0.23951665
Ga       4.84908002       6.49867005       7.86014999      -0.19501985      -0.22715671      -0.25969278
Ga       6.36886240       9.25742995       7.87954996       0.84536729       0.15999388      -0.21426649
Ga       3.19297003       9.29207998       7.83238003      -0.35173628      -0.59646285       0.52368539
Ga       6.41812130       1.83862005      10.46499997      -0.52157149       0.13740921      -0.35700696
Ga       3.15386998       1.83171997       0.01279963       0.42608434      -0.19252234      -0.67357786
Ga       1.48378998       4.61263999       0.02559957       1.34113394       0.50825402      -0.55516941
Ga       4.78968003       4.63136004       0.00569960      -0.38417807      -0.14444002       0.23643896
Ga       0.03782878       7.42926002      10.44529996      -0.42663904      -0.03062372       0.55178878
Ga       3.21836000       7.41751002      10.46240001       0.65822377      -0.09206172       0.44714474
Ga       1.71434001      10.17579997      10.46140002      -1.02418852       0.39931855       0.20206047
Ga       4.88567001      10.21079995      10.47509998       0.01498746      -0.02169728      -0.49472981
N        6.41319819       1.80959997       1.95969998      -0.05154096       0.13785992       0.40900441
N        3.18088997       1.84797005       1.96834003      -0.08628264      -0.49048444       0.53950347
N        1.57246001       4.61519999       1.92573001       0.28904842       0.29652520       1.06323360
N        4.79956999       4.57249996       2.00632998       0.06232321       0.56697356      -0.44836449
N        0.01874589       7.51511999       1.93878996       0.05721841      -1.06657663       0.37808962
N        3.27817000       7.43690001       1.96456003      -0.43482413      -0.05974710      -0.13238798
N        1.55998003      10.24849998       1.95215005       0.84471650      -0.37126207      -0.23746079
N        4.79529001      10.23310000       1.95163999       0.39928673       0.23659286       0.65818444
N        1.57008001       0.79779795       4.66250999       0.22578049       2.39949763      -1.03179269
N        6.40479872       3.70111000       4.54602999       0.21655148      -0.27088559       0.09217525
N        3.16744002       3.69028999       4.59394001       0.36974320      -0.18525837      -0.11126648
N        1.65122997       6.52119004       4.64782000      -0.08766990      -0.74465304      -0.71859228
N        4.82579002       6.48266999       4.54809998      -0.01020556       0.20693278       0.58038567
N        0.07612868       9.28260999       4.64245995      -1.09767056       0.15349365      -0.54492163
N        3.19901003       9.29393995       4.51456996       0.83550752       0.21692986       0.63356320
N        0.05910538       1.85065004       7.20769004      -0.47581444      -0.17947134      -0.41463289
N        3.27054000       1.91018998       7.24632996      -0.32631956      -0.74173433      -0.66251933
N        1.67424002       4.66685003       7.30343997      -0.22881043      -0.57782434      -0.85925321
N        4.87555999       4.62984000       7.13998004      -0.09642991       0.26169117       0.55473906
N        0.01968691       7.42971002       7.23569003      -0.37529999      -0.20685115      -0.48732003
N        3.19742003       7.41793997       7.24971004       0.48475447       0.16327250      -0.28554079
N        1.58325999      10.17310003       7.21775002       0.08603390       0.42051588       0.28805839
N        4.77220001      10.20239999       7.21091995       0.50957579       0.24572657      -0.56164537
N        1.53256997       0.87809305       9.83576998       1.04236692       0.29609363      -0.19279311
N        4.81552999       0.93489205       9.76598999      -0.28038400      -0.24875830       0.71364981
N        6.39589062       3.73450995       9.80537995      -0.50732933      -0.82580333      -0.16710661
N        3.13360999       3.68233001       9.87809998       0.58176680       0.32680461      -0.18928078
N        1.63990001       6.49753996       9.90374995      -0.43435404      -0.58431320      -0.68314385
N        4.83996003       6.47635005       9.81646999      -0.00319161       0.07061350       0.22585115
N        0.12081299       9.25323003       9.82695000      -1.32341255       0.47644696      -0.07932578
N        3.23259003       9.24479999       9.79776001       0.97215618       0.37369884       0.22805280
63
Lattice="6.43258 0.0 0.0 0.0 11.1415596 0.0 0.0 0.0 10.4799004" Properties=species:S:1:pos:R:3:forces:R:3 tag=3 energy=-387.3777146 free_energy=-387.37771523 pbc="T T T"
Ga       1.59675001       0.93530295       2.55272998       0.17175866       0.09191650       0.86012699
Ga       4.80783000       0.98923000       2.61753999       0.38902307      -0.95775268      -0.31395643
Ga       0.02766479       3.69873006       2.61984997      -0.78022954       0.25562053      -0.06144012
Ga       3.14832999       3.64740000       2.60682995       0.65086251       1.31004273      -0.25613976
Ga       1.70453998       6.58794002       2.63193005      -0.48250428      -0.97452566      -0.18913007
Ga       4.89613003       6.42711004       2.65805005      -0.06116847       0.22379095      -0.67030154
Ga       0.01485251       9.33890996       2.60850003      -0.28363325       0.02160381       0.00344496
Ga       3.20896998       9.25408002       2.61829004       0.41982924       0.37266861      -0.36098121
Ga       6.40297669       1.83755002       5.18825998      -0.42258321       0.14144152       1.20108976
Ga       3.19088002       1.78835000       5.33014997       0.16130702      -0.19071241      -0.35285407
Ga       1.64025001       4.56058005       5.16703996      -0.17981343       0.92261496       0.16611036
Ga       4.79293999       4.56928996       5.26982997       0.20330208       0.27275012       0.46253624
Ga       6.42492562       7.43073995       5.28123000       0.40386409       0.15559481      -0.58139304
Ga       3.23582002       7.40590998       5.20767997      -0.22576140       0.04543610       0.07097012
Ga       1.65401000      10.22849999       5.20753996      -0.06543806       0.23934021       0.63030613
Ga       4.84136002      10.20369999       5.31533003       0.37933139      -0.21389474      -0.80322631
Ga       1.61720998       0.93212204       7.88072004      -0.37332245      -0.01884344      -0.43624858
Ga       4.81441999       0.86009798       7.93306997       0.50493138       0.29626525       0.18972396
Ga       0.07477701       3.66624996       7.87146996      -0.83730319      -0.27192428      -0.09888624
Ga       3.26035999       3.64986006       7.80983997      -0.38985106       0.62199886       1.03949218
Ga       1.60820000       6.47318997       7.84160004      -0.43791296      -0.04656146      -0.57239161
Ga       4.81168003       6.53640005       7.78846003      -0.21451977      -0.44701829       0.63633135
Ga       6.37522371       9.33211996       7.94647995       0.92061076      -0.29498022      -0.54004898
Ga       3.17315003       9.28691999       7.85618995      -0.55120515      -0.14353628      -0.27380959
Ga       0.03883818       1.87365001      10.43469996      -1.15979713       0.48997937       0.33842409
Ga       3.15837002       1.83764996       0.02229955       0.52328978       0.54984751      -0.38688286
Ga       1.53421999       4.67833998       0.00079962       0.60476426      -1.37715173       0.20234006
Ga       4.72251000       4.63400995      10.47090005       0.20764514      -0.26334119      -0.30417381
Ga       0.05442818       7.42719003       0.04339957      -1.07535447      -0.13614837      -0.05047402
Ga       3.18327999       7.32322000      10.43000004       0.77913028       1.35488930       0.29956843
Ga       1.69528002      10.27629995      10.42739998      -0.43500954      -1.28898061       0.52499291
Ga       4.87638998      10.23669995      10.45380000      -0.64550767      -0.69313985       0.82859711
N        0.05215832       1.89659003       1.91411000      -0.78569026      -0.48615320       0.53934627
N        3.20562002       1.89273995       1.95677001      -0.02421207      -0.82679240       0.57940682
N        1.59995999       4.62430999       2.00173999       0.12222311       0.86414108      -0.03167031
N        4.79088003       4.57770998       1.95360005       0.09626506       0.17266393       0.76754908
N        0.05851197       7.45753997       2.03976003      -0.18179651      -0.36398497      -0.67649244
N        3.32385998       7.39500005       1.93215000      -0.50404712       0.20996193       0.12504847
N        1.63379999      10.26919999       1.91201004       0.04405407      -0.71506136       0.45223348
N        4.78646001      10.20669997       1.95090996       0.52296315       0.59667425       0.24251067
N        1.56439001       1.00791996       4.59536999       0.98457657      -0.70620900      -0.63532680
N        4.78977999       0.90625702       4.61040005      -0.14096706       0.49651411      -0.32565087
N        6.38862399       3.70824996       4.61538000       0.33676719      -0.48485127      -0.70309634
N        1.62073002       6.50737005       4.55684001       0.03306301      -0.61400267       0.65044670
N        4.82965999       6.37924000       4.59401001      -0.07423454       0.95512590       0.42713481
N        0.08168592       9.34133002       4.59094998      -1.17138413      -0.68878377      -0.03292827
N        3.25882003       9.28198996       4.58918999      -0.03314346      -0.10953573      -0.02918412
N        6.38729682       1.77146998       7.22868998       0.58330470       0.72290898      -0.10936067
N        3.28536999       1.80324003       7.28290995      -1.02641861       0.18173683      -0.81079866
N        1.61881002       4.57402000       7.13269001       0.55195634       0.36116084       0.31063656
N        4.85789001       4.58037002       7.26034997      -0.17871166       0.61959597      -0.87861266
N        6.41283577       7.50811998       7.23524998       0.17572060      -0.86956904      -0.10352753
N        3.13768998       7.45585002       7.16161998       0.75585519      -0.49446452       0.26371517
N        1.56478002      10.26869996       7.20145000       0.22604682      -0.62348136       0.11705191
N        4.77619001      10.17559998       7.25858998       0.23603809       0.33142334      -0.16119900
N        1.58792000       0.92732805       9.83469003       0.19365792       0.36312201      -0.37560980
N        4.77078001       0.93745896       9.92413996       0.75847451       0.06865392      -0.86949564
N        6.37011682       3.77280995       9.84294997       0.40966612      -0.77051318      -0.25476718
N        3.15589000       3.64363003       9.81235998      -0.30374966       0.80029332      -0.05003990
N        1.58502000       6.44049997       9.79805995      -0.09060675       0.71593399       0.00486675
N        4.79010998       6.46504003       9.78977003       0.63702834       0.36921830       0.06488692
N        0.04525790       9.27950996       9.89760003       0.05264882       0.20255362      -0.44287606
N        3.23325001       9.27373006       9.77432004       0.09591758      -0.32556979       0.74408627
63
Lattice="6.43258 0.0 0.0 0.0 11.1415596 0.0 0.0 0.0 10.4799004" Properties=species:S:1:pos:R:3:forces:R:3 tag=4 energy=-387.79458676 free_energy=-387.79458676 pbc="T T T"
Ga       1.55165003       0.91689699       2.55006002       0.61827352       0.74133994       0.49319706
Ga       4.81833003       0.96556299       2.57349003       0.06237208      -0.14447803       0.11909019
Ga       6.41778667       3.78662003       2.61023005       0.09863309      -0.78287184       0.05857088
Ga       3.20170001       3.78780003       2.70490998      -0.35150388      -0.81265139      -1.13529125
Ga       1.66489997       6.50371996       2.61601003      -0.17694467      -0.45537226       0.24540682
Ga       4.89672002       6.46708005       2.63479997      -0.13430199      -0.37578840      -0.02185308
Ga       0.03387287       9.25547004       2.61670998      -0.53764056       0.35345841       0.17458301
Ga       3.23543998       9.18773003       2.61356999      -0.11883287       1.01671368      -0.22767472
Ga       6.41669912       1.84321004       5.22913002       0.06706578      -0.38923299       0.06364907
Ga       3.20471998       1.83463004       5.22150998      -0.49906822      -0.03800517       0.32162957
Ga       1.61376997       4.61197996       5.31243003      -0.36985254       0.08851920      -0.39950657
Ga       4.83724002       4.58008001       5.24548002      -0.01059479      -0.05546178       0.19125335
Ga       6.39526100       7.45607998       5.27681996       0.60055506      -0.65097734      -0.87614997
Ga       3.23851000       7.37209000       5.20014995      -0.37598995       0.29019384       0.06528092
Ga       1.59681999      10.18099996       5.23709998      -0.29930614       0.39335606      -0.31718042
Ga       4.79998997      10.18599995       5.25254997       0.19381342       0.57403718      -1.17226008
Ga       1.63591001       0.93060400       7.92838001      -0.03437548       0.10118872      -0.64542175
Ga       4.82667997       0.86700497       7.88793996       0.23319367       1.11444901      -0.45205179
Ga       0.00298961       3.72990002       7.85577002       0.12671033      -0.81868860      -0.15487126
Ga       3.24681002       3.71560996       7.88919996      -0.36247045      -0.35729481      -0.39105821
Ga       1.66652999       6.50948004       7.88527995      -0.77004319      -0.13878674      -1.19123052
Ga       4.81199999       6.43507002       7.80674997       0.39206902       0.35965426       0.24916078
Ga       6.32476198       9.30847000       7.87885001       1.58309600      -0.65970617      -0.37536625
Ga       3.22839998       9.25604996       7.80308001      -0.94148935      -0.16635316       0.40100376
Ga       6.41920853       1.89793003      10.41589996      -0.16889105       0.35979190       0.94531909
Ga       3.24034000       1.82906004       0.00069964      -0.31919721       0.50982213       0.57631766
Ga       1.58469998       4.64384003       0.00909959       0.20421401      -0.28093158      -0.73642104
Ga       4.78709998       4.63747999      10.44510000       0.31455302      -0.42562298       0.17883028
Ga       6.42474595       7.41744005       0.00939963      -0.32542512      -0.53136556      -0.42078333
Ga       3.18831001       7.39468999       0.03209962       0.82653338       0.60688951      -0.93394119
Ga       1.63890997      10.23369998      10.45929995       0.45546982       0.04982019       0.32289908
Ga       4.91565998      10.18389999       0.01559965      -0.50618173       0.02406959       0.31460291
N        0.00428448       1.94155001       1.92744997      -0.29615831      -0.64412292       0.01908890
N        3.22097002       1.91860999       1.97642003      -0.43056477      -0.44396161      -0.06101050
N        1.57969003       4.67259005       1.91900998       0.39037202       0.06946863       0.82887443
N        4.78644000       4.60039998       1.93164005       0.34034445       0.93898703       0.34035253
N        0.06623312       7.42668999       1.95846995      -0.37212344      -0.06045627      -0.11954025
N        3.29179003       7.35966995       1.94880004      -0.31433121       0.36868504       0.42100987
N        1.58107001      10.20360005       1.96009004       0.61206365      -0.54987812      -0.53549094
N        4.83046001      10.16579997       1.99708000       0.25335533       0.28638140      -0.58660745
N        1.56816999       0.89703003       4.54472000       0.27957361      -0.02626666       0.08481136
N        4.77266997       0.92519600       4.54529996       0.59217468      -0.37444619       0.48343261
N        6.42161811       3.67498995       4.58459005       0.37346397       0.43219797      -0.04911547
N        3.20434000       3.71442996       4.62137995      -0.05693795      -0.23084613       0.18439900
N        1.63399001       6.43984997       4.58049000      -0.60459198       0.60126576       0.14563625
N        4.82630997       6.40691998       4.62911998       0.46688365       0.85955457      -0.74909387
N        6.39370187       9.27550000       4.55888998       0.32296831      -0.14082838       0.46250267
N        3.21225002       9.28467998       4.55931001      -0.15880694      -0.69397031       0.41641165
N        0.09219849       1.84537997       7.19954004      -1.36566112      -0.08954504       0.27535979
N        3.21397003       1.87328000       7.24670996       0.53041196      -0.66002685      -0.38515034
N        1.60237999       4.59883003       7.25786005       0.52137100       0.97909340      -0.23427624
N        4.84400001       4.58940995       7.20002997      -0.27181607       0.33119659      -0.10195845
N        6.39504860       7.44556001       7.18733001       0.56156675      -0.09497972       1.17042281
N        3.25294998       7.39296004       7.15467003      -0.41422069       0.28137451       0.29510148
N        1.56443999      10.24219998       7.20486005       0.17297250      -0.78473834       0.71150703
N        4.79945999      10.17359995       7.17965002      -0.21492651       0.69065361       0.38621549
N        1.56129002       0.96031097       9.89197002       0.74373145      -0.80099141      -0.59359316
N        4.84701001       0.89792202       9.87776001       0.03480132      -0.28367426      -0.72765722
N        6.43216047       3.72507996       9.77542997      -0.25453667       0.30682128       0.66634372
N        3.20652000       3.67469002       9.80843002      -0.13801088       0.43228787       0.49349058
N        1.60883998       6.55026996       9.78450996      -0.29900839      -0.20033477       0.89637422
N        4.80501002       6.46963002       9.77922002       0.17110601       0.72733321       0.38992846
N        3.28493000       9.32451005       9.79134003      -0.64990874      -0.72594867       0.20249804
63
Lattice="6.43258 0.0 0.0 0.0 11.1415596 0.0 0.0 0.0 10.4799004" Properties=species:S:1:pos:R:3:forces:R:3 tag=5 energy=-387.79233847 free_energy=-387.79254495 pbc="T T T"
Ga       1.56930997       0.91482198       2.62877004       0.27318010       0.19891704       0.36125110
Ga       4.81302000       0.94243199       2.63619002      -0.27320047      -0.32891326       0.08081030
Ga       6.37379709       3.71205001       2.55897003       0.22003964       0.24620441       0.43951352
Ga       3.21805999       3.73507003       2.66081999      -0.37176660      -0.11005754      -0.67190179
Ga       1.60386000       6.53191000       2.59239001       0.35599840      -0.84421285       0.42463199
Ga       4.89051998       6.59578000       2.53772004      -0.78109514      -1.20194614       0.59537830
Ga       0.05732458       9.25800998       2.67602004      -0.74585570       0.60955305      -0.18882350
Ga       3.24727001       9.25063995       2.60370998       0.09988846       0.94489764       0.51053685
Ga       0.00732555       1.84931004       5.20448003      -0.55479467      -0.07693799       0.16976064
Ga       3.23140997       1.87887005       5.21382999      -0.08363541      -0.86438256       0.23231838
Ga       1.60926999       4.61781001       5.30913997       0.32636953       0.13558447      -1.52732466
Ga       4.86757999       4.67550000       5.24655002      -0.34554439      -0.44653023      -0.03251159
Ga       6.38996281       7.33383000       5.23191002       0.66690926       0.91981381       0.16783676
Ga       3.22004997       7.41549997       5.25100995      -0.20082948       0.05519392      -0.59214237
Ga       1.58746998      10.14050005       5.22216005       0.01634928       0.36451172       0.08411852
Ga       4.76025001      10.13399995       5.25786004       0.84159962       1.04948342      -0.19589875
Ga       1.65462998       0.89726400       7.81183995      -0.37925472       0.27584153       0.12526586
Ga       4.85390001       0.98548097       7.89007000      -0.30814583      -0.32460274      -1.08572678
Ga       0.01451023       3.68710997       7.82934003      -0.21179595      -0.37684613       0.03662045
Ga       3.18672998       3.73678996       7.92731001       0.14513913      -0.50857521      -0.84072584
Ga       1.62664999       6.49306005       7.88843000      -0.25861923       0.01255657      -0.36143083
Ga       4.88484001       6.41705000       7.85643004      -0.90733208       0.37476024       0.10678719
Ga       6.38352958       9.21335996       7.83481001       0.61746913       0.76699819       0.05624150
Ga       3.22560000       9.27470996       7.82934003       0.01729606      -0.06664941      -0.31674219
Ga       6.41371028       1.81431998      10.46979998       0.29938060       0.43136552       0.21450719