63
Lattice="12.6078568 0.0 0.0 0.0 5.4593644 0.0 0.0 0.0 10.2703028" Properties=species:S:1:pos:R:3:forces:R:3 tag=1 energy=-387.07722376 free_energy=-387.07722449 pbc="T T T"
Ga       1.58120995       0.92958901       2.53025003      -0.19725255      -0.26980934      -0.41850513
Ga       4.73265004       0.85194102       2.54449001      -0.24853102       0.06599429       0.38935072
Ga       7.81621006       0.84346001       2.58583003       0.83403442      -0.11485386       0.08464636
Ga      10.93499996       0.91012300       2.52615002       1.00688876      -0.29309125       0.24393127
Ga       0.06712990       3.67579999       2.61053001      -0.30237929      -0.06409386      -0.75700632
Ga       3.20272999       3.61493997       2.65820003      -0.32814103      -0.24365742      -0.64915440
Ga       6.30036996       3.57421000       2.59396997       0.73409815      -0.47490454      -0.32606004
Ga       9.44305995       3.62768999       2.49203999      -0.19095580      -0.59319888       0.38237218
Ga       0.03287057       1.92435001       5.14307997      -0.56922105      -0.87609960      -0.71984032
Ga       3.10175001       1.82046999       5.13248995       1.59108138      -0.06054485       0.72760951
Ga       6.32257996       1.71459998       5.13408996      -0.40093691       0.30031229      -0.08685283
Ga       9.48677996       1.81904002       5.13149004      -0.07104895      -0.65697905       0.10612859
Ga       1.56072004       4.63651000       5.18014005      -0.17820982       0.02453637      -0.09701019
Ga       4.71913996       4.48083999       5.13730005       0.63685761       0.21618650       0.43142681
Ga       7.92107994       4.46781002       5.10602996       0.42456731      -0.04242042      -0.15772788
Ga      11.00380003       4.58025998       5.05514995      -0.87268586       0.60293618       0.22725133
Ga       1.59679994       1.06778000       7.74499001      -0.36930544      -0.03209961      -0.64421545
Ga       4.72654998       0.79788998       7.70318998       0.16921160       1.15830842       0.46316389
Ga       7.88449005       0.78883699       7.68139999       0.39110108       0.15498741       0.16112762
Ga      11.01670001       0.90146603       7.70565999       0.49710436       0.53825957      -0.38685124
Ga      12.58596943       3.78300001       7.63875996       0.40210548      -0.26361007      -0.11570553
Ga       3.15203997       3.73460002       7.80073003      -0.65068818      -0.40142173      -0.94918134
Ga       6.33881005       3.50633001       7.68352995      -0.00905121       0.61443682       0.24078275
Ga       9.50708995       3.58412001       7.72106000      -0.02714215      -0.23368392      -0.61995409
Ga      12.57913408       1.91934001       0.03359724      -0.26278640       0.17836094      -1.24221921
Ga       3.12434997       1.87367002      10.25270001       0.55337288      -0.92005471       0.32625765
Ga       6.31522000       1.69201000      10.26060003      -0.14320826       0.25268148       0.28542937
Ga       9.47920995       1.80991000       0.00799718      -0.39917970      -0.93245698      -0.49005017
Ga       1.55388002       4.66099001       0.00059722      -0.13237077      -0.59215144       0.31653469
Ga       4.71381995       4.48484001       0.05199721       0.41453444      -0.13292658      -0.13264476
Ga       7.89412006       4.40557998      10.21570002      -0.02784019       1.14854003       0.27570475
Ga      11.07220005       4.55889001      10.24170001      -0.42755679       0.58420481       0.57143576
N       12.58848407       1.81964000       1.90780005       0.24427044       0.38464362       0.76528919
N        3.19272994       1.79712002       1.92767997      -0.84812241       0.49472857      -0.17142802
N        6.26728997       1.72932000       1.96931002       0.49893277       0.81477487      -0.85466440
N        9.40020004       1.78540002       1.89191004      -0.38885605      -0.00387619       0.41679559
N        4.76329003       4.49955999       1.98919004      -1.05582228      -0.29367047      -0.55639304
N        7.85326001       4.48530002       1.87184002      -0.03997123       0.17721471       0.41586355
N       11.04109999       4.48556998       1.93951998       0.71192605       0.90781829      -0.67822133
N        1.61291001       0.94609398       4.41791001      -1.13370871      -0.10153079       0.70269044
N        4.71148006       0.83822601       4.44342001      -0.22450064       0.47441123       1.31877588
N        7.91596002       0.83398102       4.56425002       0.07166281       0.19779868      -1.10871711
N       11.06549998       0.95525900       4.43507005       0.16942757      -0.08090726       0.45056674
N       12.57227428       3.74702002       4.50690999       1.60487164      -0.65936345      -0.19748535
N        3.07641994       3.65391001       4.54920998       0.35464208      -0.12428663      -0.32397007
N        6.37557002       3.57585000       4.49566997      -1.39833274      -0.33484682       0.45499858
N        9.48686998       3.55711002       4.40849995      -0.10751294       1.01307922       0.37247254
N       12.54427626       1.95328000       7.04165000       0.97033277      -0.70321194       0.48977941
N        3.24937994       1.94484998       7.12208999      -1.02629941      -1.19686763      -0.52818451
N        6.32381994       1.70739001       7.06721001      -0.33606899      -0.17265180      -0.08413796
N        9.45767006       1.74316998       7.06134998      -0.35741335       0.76512992      -0.12614630
N        1.60698003       4.69901000       7.08590001      -0.11084191      -0.21782273       0.21190503
N        4.72997995       4.46532000       7.13080999       0.86660325       0.27143719      -1.18694284
N        7.94954004       4.43010999       6.99185002      -0.82225623       0.04480818       1.29153923
N       10.99119999       4.60432000       6.98269004       0.12189261      -0.46788560       0.33886601
N        1.51907994       0.97865200       9.67497997       0.47699944       0.43746435      -0.06257795
N        4.67977004       0.81059201       9.67668998       0.00095462       0.86613881      -0.39884925
N        7.92461998       0.84651998       9.62973005      -0.27562281      -0.50960919      -0.25907971
N       11.04750000       0.93617798       9.59684002       0.28483097      -0.13102838       0.76346205
N        0.02975101       3.76930001       9.54808001       0.12458966      -1.14670241       1.09675209
N        3.07779004       3.66982002       9.68486997       0.31223638       0.34593479       0.70333072
N        6.28739004       3.55031000       9.65226001      -0.17704625      -0.25578206      -0.42938146
N        9.53452995       3.58381002       9.63531997      -0.35826319       0.56297393      -0.26708210
63
Lattice="12.6078568 0.0 0.0 0.0 5.4593644 0.0 0.0 0.0 10.2703028" Properties=species:S:1:pos:R:3:forces:R:3 tag=2 energy=-387.58252565 free_energy=-387.58255785 pbc="T T T"
Ga       1.63218994       0.84994399       2.59618003      -0.86184577       0.66774538      -0.73670809
Ga       4.73772004       0.87244798       2.60371998      -0.03354566       0.63925823      -0.29990522
Ga       7.88805997       0.87929599       2.56519001      -0.23376194       0.33100150      -0.55807919
Ga      11.05190001       0.92510502       2.50806001      -0.08697969       0.02387668       0.17451222
Ga      12.57368005       3.65777000       2.53707999      -0.54093205      -1.35689204       0.30537881
Ga       3.07514995       3.59061998       2.57494998       0.96537169       0.42571888       0.10691500
Ga       6.29034999       3.61917000       2.56761000       0.61455281      -0.48908896      -0.08085248
Ga       9.44700003       3.65980001       2.58106995       0.00661160      -0.58781932       0.00516422
Ga      12.58411696       1.82720002       5.13934004      -0.01829813      -1.25703749       0.06117286
Ga       3.08860997       1.75668998       5.16683005       0.74748341       0.15813880      -0.26738990
Ga       6.34382004       1.78909000       5.14119003      -0.09436491      -0.09621674       0.74996385
Ga       9.46734999       1.88458002       5.08428998       0.36005174      -0.70303783       0.45288286
Ga       1.57616000       4.49604001       5.15159005       0.21592286      -0.53796612       0.22523880
Ga       4.74723998       4.49363003       5.09181000       0.07109226       0.09871205       0.06840704
Ga       7.85235994       4.56998999       5.14817004       0.80123701       0.54766677       0.59790833
Ga      11.09749998       4.54389003       5.07216004      -1.14816126       0.74495375       0.63861215
Ga       1.64157006       0.85880601       7.73850000      -0.64195533      -0.03600993       0.02289045
Ga       4.73303004       0.92235699       7.73942002       0.31621551       0.09875105      -0.60755064
Ga       7.85861003       0.96572198       7.72326997       0.04698395       0.42236665       0.20339444
Ga      11.02370002       0.91925799       7.64800005      -0.20063998      -0.27441103       0.25996181
Ga       0.03081335       3.54585003       7.65285995      -0.69212346       1.36446915       0.04165754
Ga       3.22062003       3.61643999       7.77139003      -0.50853052       0.33281917      -0.12657827
Ga       6.27118996       3.69672999       7.71720001       0.53915700       0.19819710      -0.20421693
Ga       9.42115997       3.67664002       7.71978998       0.64666774       0.27993893      -0.74100506
Ga      12.57379630       1.83502001      10.21950003       0.73859917      -1.25452615       0.65902450
Ga       3.17703001       1.76931001       0.02319722      -0.59959712      -0.14638559      -0.37651701
Ga       6.30574998       1.87486000      10.24800002       0.03290273       0.05140677       0.74697614
Ga       9.50460999       1.83141001      10.23689998      -0.90288942       0.01060063       0.41324749
Ga       1.52391997       4.42722002       0.02929717       0.23028504       1.23837594      -0.25299683
Ga       4.74634999       4.54387998       0.00299718      -0.26776158       0.36870794       0.87161280
Ga       7.87800999       4.57670998      10.25110000       0.40612436       0.52435404       0.73198603
Ga      11.02729994       4.51568002      10.26669998      -0.05799455       0.62791843      -0.73905165
N        0.04617716       1.76045001       1.91383005       0.06737325       0.95971453      -0.21235945
N        3.15945995       1.81523997       1.93315003       0.07758564      -0.59321208       0.83424422
N        6.26491994       1.78938999       1.93353003       0.53023734       0.22953341      -0.14381460
N        9.45677994       1.80014003       1.91360996       0.03876345       0.53729387       0.00562230
N        1.51815995       4.51534001       1.96399000       0.93479251       0.01636582      -0.06053182
N        4.73176005       4.53685001       2.00830996      -1.07234924      -0.44896888      -0.40868004
N        7.88453002       4.50877998       1.93609997      -0.45590156       0.38405417      -0.28973651
N       11.00300006       4.55721999       1.88808004       0.31208271      -0.33223223       0.54407092
N        1.53928996       0.81560098       4.50441000       0.60878801       0.77368266       0.16395369
N        4.74172001       0.91256901       4.52157999      -0.70260706      -0.32221232       0.11712913
N        7.91986001       0.93297699       4.47542001      -0.42811103      -0.42299676       0.37482732
N       11.05880004       0.91235599       4.42312004      -0.33628726       0.12981650       0.67253031
N       12.60576919       3.57400997       4.49468001       0.93073075       0.73382160      -0.60808994
N        6.39204005       3.56554998       4.49816000      -1.61714240       0.87251868      -0.07340482
N        9.44324995       3.70930001       4.53304997       0.41675799      -0.33377714      -0.73734757
N        0.03796982       1.76023000       7.07123001       0.22997841      -0.17554259      -0.39606609
N        3.18540994       1.82501999       7.06803995      -0.48103231       0.12396452       0.17189383
N        6.25917000       1.90244000       7.11638000       0.51003561      -0.70528867      -0.66187024
N        9.43759003       1.86739001       7.05052005       0.15021157      -0.13334058      -0.16813765
N        1.61898006       4.49455997       7.08253997       0.29529357      -0.08183710      -0.31564353
N        4.72508999       4.60370997       7.02005997      -0.37914078      -0.61450263       0.26822276
N        7.85959004       4.63091999       7.11529002      -0.18615685      -0.55018605      -0.65056323
N       11.04389995       4.57390998       6.99650000       0.18635964      -0.78038200       0.67229785
N        1.56253998       0.81468403       9.66571000       0.36322581       0.60130532       0.00353883
N        4.76960001       0.91332000       9.63789001      -0.59116096      -0.14747247       0.26571229
N        7.85317995       0.96424599       9.68263001       0.75057954      -0.21703094      -0.65206926
N       11.02370002       0.90501500       9.59567999       0.10549988      -0.42273936      -0.10601205
N       12.58553144       3.60523000       9.57774999      -0.14826909       0.22885632       0.20461510
N        3.14661998       3.63088001       9.74066000       0.48097852      -0.52661126      -1.01073139
N        6.33096002       3.72493001       9.64142001      -0.77894130      -0.94814042      -0.14423398
N        9.43112005       3.66976002       9.62911003       0.33794807      -0.25004057      -0.00542242
63
Lattice="12.6078568 0.0 0.0 0.0 5.4593644 0.0 0.0 0.0 10.2703028" Properties=species:S:1:pos:R:3:forces:R:3 tag=3 energy=-387.09405642 free_energy=-387.09405642 pbc="T T T"
Ga       1.58215995       0.79758901       2.58475001      -0.06286798       0.46179744      -0.20297614
Ga       4.74761998       0.89699399       2.58192003       0.24354644      -0.41991597      -0.42057973
Ga       7.82021003       0.96807803       2.57084001       0.74118542      -0.56079931       0.13395491
Ga      11.04410003       0.92259999       2.54973002      -0.05484857      -0.06880787       0.09011922
Ga       0.02595693       3.58595998       2.49665002      -0.61170518      -0.14957538      -0.37786647
Ga       3.16037994       3.56291998       2.59134005       0.52394834       0.12909581      -0.05251994
Ga       6.30830005       3.64214999       2.59339997       0.04322098       0.17752774      -0.00316905
Ga       9.45901002       3.67153999       2.59032000      -0.56504302       0.11710771      -0.36382490
Ga       0.01359757       1.78763999       5.09484005       0.00889756      -0.40958244       0.05302247
Ga       3.17803006       1.68662002       5.10693005      -0.20459566       0.42888724       0.42718421
Ga       6.33591995       1.89398000       5.19371996      -0.36201382      -0.96138485      -0.59074100
Ga       9.49801999       1.86530000       5.13191995      -0.65048704      -0.53509068      -0.14052596
Ga       1.49891998       4.41866001       5.14905996       0.35553984       0.09672445      -1.37963847
Ga       4.69701998       4.49666003       5.14519000       0.18685802      -0.04988968      -0.49131603
Ga       7.83777996       4.60778998       5.16263997       0.53187493       0.36605352      -0.46485809
Ga      10.99340006       4.56765999       5.12636998       0.43466063      -0.48087165      -0.65387211
Ga       1.56836002       0.79700999       7.73455004       0.79341552       0.97447730      -0.76116769
Ga       4.73450995       0.89183402       7.69789995       0.16775238       0.24715473      -0.17474339
Ga       7.86406999       1.00362002       7.71924000      -0.05302599      -0.22125421       0.31700650
Ga      11.06229998       0.86523201       7.71823002      -0.48740270       0.10050552      -1.84933680
Ga       0.04490956       3.57777000       7.68034996      -0.69724207      -0.26989499       0.21827138
Ga       3.14231995       3.61484001       7.72426002       0.15817475      -0.94833555      -0.95407851
Ga       6.25131997       3.75897002       7.72532998       1.18826393      -0.64999430       0.27616481
Ga       9.46043004       3.65955002       7.62269001      -1.30239188      -0.18371028       0.71375930
Ga      12.53960127       1.74186999      10.19340001       1.91790082       0.67951376       0.64551847
Ga       3.14706000       1.77288000       0.04389723       0.37443994       0.48419482      -0.24345581
Ga       6.30836006       1.84057000       0.02769716      -0.34956333       0.89013888      -1.13341497
Ga       9.56942005       1.91112001      10.25340004      -2.33505481      -0.43560589       0.99732946
Ga       1.60311005       4.46532999      10.25849996      -0.01624476       0.14580741       0.14048234
Ga       4.74901995       4.59425998       0.01339720      -0.07999044      -0.15325988       0.71319423
Ga       7.91235001       4.60530001       0.06119724      -0.60173829       0.38800271      -1.36288481
Ga      11.05070000       4.58119998      10.20579996      -0.28867473      -1.22523549       0.80641600
N        0.04511986       1.72490999       1.82623002      -0.37940421       0.86017215       0.46218005
N        3.14065004       1.73571003       1.98301995       0.00563440       0.34579895      -0.60348932
N        6.29722997       1.85398001       1.89433003      -0.55125420      -0.06192237       0.86613329
N        9.45580006       1.82481002       2.01378998       0.21846249       0.50626454      -1.48201842
N        1.62396004       4.47330001       1.91202998      -0.61135022      -0.24790851      -0.48921620
N        4.74263004       4.51125001       1.95143004      -0.62249987       0.24284116      -0.11120789
N        7.82506998       4.59154001       1.90425998       0.92274850      -0.17934090       1.44870795
N       11.01549999       4.58026997       1.88138000       0.75900352      -0.75351311      -0.32758446
N        1.55351994       0.77905801       4.50528996       0.12354741       0.37935245      -0.06761290
N        4.79552000       0.83119898       4.46398003      -0.10070954       0.79973256       0.98723294
N        7.86825000       0.95933398       4.49403997       0.33262030       0.10060995       0.22005118
N       11.03320004       0.90062698       4.47246001       0.09467688      -0.01250610       0.29953145
N       12.52857015       3.54945998       4.38381004       0.29438808       0.65931480       1.18316896
N        3.13352004       3.55950002       4.51106002      -0.18210001      -0.22285656       0.15466662
N        6.34294997       3.66506000       4.52638999      -0.89428279      -0.11683377      -0.55084540
N        9.40834005       3.67522997       4.50881000       0.23591312       0.18019648       0.10846484
N        0.05060403       1.76640001       7.04216002      -0.47791776      -0.06654019       0.59079634
N        3.15555996       1.74425000       7.07188998      -0.59147594       0.36779672      -0.14431068
N        6.28514005       1.93527000       7.08225004      -0.00256894      -0.83687331       0.49966078
N        9.47631002       1.81770002       7.07653996       0.39959017      -0.05085193      -0.17861180
N        1.55951006       4.49149001       7.01540003       0.07540160      -0.27505456       1.33357602
N        4.68740006       4.49440001       7.03974999      -0.35073090       1.18803677       0.19907162
N        7.86304005       4.64581003       7.04539003       0.07818981      -0.45387957       0.81630552
N       11.03809996       4.45168999       7.04466002       1.14970696       1.26155451       0.46289742
N        1.57958000       0.84723003       9.64911001      -0.65315507       0.12042186      -0.20952045
N        4.72496000       0.90977998       9.61773002       0.08259835       0.61079753       0.31978310
N        7.87411000       0.99965799       9.66886000       1.15607918      -0.27702866      -0.26638364
N       11.01930000       0.88583701       9.58910001       0.05812023       0.31069007      -0.07717067
N        3.22367996       3.65515000       9.60499998      -1.26763978      -0.94800659       0.75956654
N        6.29453996       3.76983000       9.64003999       0.77221369      -1.32309264       0.01190602
N        9.43933004       3.69838003       9.58890005       0.97940528      -0.07115237      -0.12718226
63
Lattice="12.6078568 0.0 0.0 0.0 5.4593644 0.0 0.0 0.0 10.2703028" Properties=species:S:1:pos:R:3:forces:R:3 tag=4 energy=-387.28528832 free_energy=-387.28551169 pbc="T T T"
Ga       1.57406003       0.95395498       2.50480001       0.04350344       0.43944830      -0.14923270
Ga       4.67407003       0.94564102       2.63788999       0.54482956      -0.09736996      -1.18909578
Ga       7.82307996       0.80919900       2.54878998       0.51861390       1.37588037       0.51395086
Ga      11.08650000       0.83534701       2.56785002      -1.18949042       1.58261716       0.18146537
Ga       0.06877699       3.72938998       2.51262003      -0.43242425      -0.59747844       0.18969408
Ga       3.15413994       3.67067998       2.61985000       0.71071641       0.55940454      -0.38568421
Ga       6.30844996       3.58909998       2.61324003      -0.50150393       0.23118705      -0.27713797
Ga       9.46281999       3.58748003       2.54229001      -0.07668956      -0.64158805       0.14832054
Ga      12.51682946       1.87136999       5.09998999       0.98383172       0.25658737       0.40032962
Ga       3.11071003       1.81572002       5.12106003       0.41179372       0.22336712       0.30186937
Ga       6.29775005       1.74102002       5.16972001       1.20954311       0.65888185       0.10807279
Ga       9.42501999       1.74513000       5.14198998      -0.82236503      -0.20956452      -0.00401471
Ga       1.57112001       4.58445998       5.13758002      -0.37590960      -0.16846786       0.16403851
Ga       4.76615000       4.56997001       5.14896003      -0.08708405      -0.25338410       0.34516082
Ga       7.88402999       4.43732001       5.15322005      -0.01391357       0.29717858       0.20186587
Ga      11.02220006       4.50579999       5.12525001       0.03431358      -0.51747045      -0.09220712
Ga       1.59123004       1.02020000       7.67319002       0.36111568      -0.29391946       0.95255225
Ga       4.69545005       0.93379999       7.71923004       0.64999405      -0.41563271      -0.06042117
Ga       7.89844998       0.72680098       7.70714004      -0.48454864       0.60350930      -0.38616411
Ga      11.10480006       0.92999901       7.63915002      -1.29417843      -1.05643738       1.10586136
Ga       0.00281042       3.66546000       7.75292002      -0.15626969       0.63461008      -0.10736220
Ga       3.10871005       3.71893999       7.63494998       0.18759510       0.12400633       0.21866757
Ga       6.23721002       3.55898002       7.76452002       0.46924197      -0.25150675      -0.47923928
Ga       9.48267005       3.54277002       7.69046004      -0.39279827      -0.23567568       0.03447200
Ga      12.56690144       1.88687999       0.00009716       0.77227321      -0.14375205       0.05108502
Ga       3.24103001       1.89647002      10.25580000      -0.45202254      -0.01934311      -0.43500292
Ga       6.38881004       1.79591999       0.00139717      -0.65504781      -0.46481244      -0.10563410
Ga       9.44168998       1.77999999       0.00619720      -0.06869510      -0.56636397      -0.22427616
Ga       1.60366000       4.61202999      10.24289999       0.10402545       0.45010392      -0.49715161
Ga       4.74381001       4.52232002      10.23800003       0.15120858       0.79317222       0.72310014
Ga       7.93804999       4.45882003      10.26289997      -1.31251188       1.13513280       1.08889009
Ga      11.00650000       4.54742000       0.00169717      -0.06120518       0.48514237      -0.42474148
N       12.57268907       1.90447001       1.96910996       0.36486193      -0.49918966      -0.00284198
N        3.12405999       1.92903999       1.89477997       0.47105018      -0.94020157       0.75693216
N        6.30866996       1.79486000       1.88689002      -0.40699287      -0.03718883       1.20556914
N        9.43886998       1.72680002       1.91473004       0.26819398       0.37020984       0.59027473
N        1.64586001       4.59791999       1.88710005      -0.64255745       0.14758182       0.76366542
N        4.73683005       4.58813998       1.92311995      -0.05900854      -0.32671646       0.52585243
N        7.87392000       4.51167999       2.01881001       0.29023203      -1.16901291      -1.65591872
N       11.04040001       4.54531001       1.93152999       0.17775288      -0.66897336       0.30538775
N        1.51760003       0.91157399       4.44146999      -0.14423894       0.56427875       0.40512931
N        4.75210005       0.93415299       4.56208001      -1.54209433      -0.44074302      -0.85885432
N        7.86233994       0.77549502       4.48579004       0.00234208       0.87849788       0.37728051
N       11.00510002       0.86545901       4.54274996       0.61853511      -0.11368888      -0.87665978
N        3.15469998       3.67839002       4.55254002      -0.58736673      -0.31743818      -0.44576502
N        6.28600999       3.59706001       4.56395002      -0.00083286      -0.57824004      -0.74662480
N        9.46057995       3.55141001       4.47840004       0.62385070       0.10097571       0.18710837
N       12.60662300       1.88314999       7.11317002       0.44208335       0.26343248      -1.60346062
N        3.18957999       1.91835001       7.06006999      -0.72486829      -0.89887353      -0.39307324
N        6.33752998       1.72262000       7.06965002      -0.18150574       0.25395964       0.56785579
N        9.43231994       1.67933002       7.07842004       0.53113641       0.78886056      -0.23423052
N        1.51738999       4.64759999       7.07308000       0.08104788      -0.33554990      -0.56364550
N        4.72335994       4.54217999       7.06911001       0.16250362       0.46276264       0.14709969
N        7.85117001       4.36333001       7.08904005       0.33603955       0.57949690      -0.16655830
N       11.03520002       4.51264002       7.02557995       0.08157057       0.08414805       0.51667231
N        1.60822001       1.02101000       9.65809005      -0.25446258      -0.27730729      -0.34049116
N        4.79504002       0.92007198       9.64332002      -0.62218898       0.04641807      -0.12073940
N        7.86372995       0.82535102       9.59477004       0.83862723      -0.07117322       0.79970093
N       11.04759998       0.93515899       9.64197995      -0.13588484      -0.50224569      -0.60255663
N        0.00188210       3.72790001       9.66633002       0.05002838      -0.51115272      -0.10019819
N        3.15681003       3.74233998       9.53754997      -0.07353412      -0.79472277       0.78842809
N        6.32656001       3.60196001       9.69689998      -0.20077972       0.12991780      -0.65093548
N        9.42835994       3.58676998       9.64731003       1.46051862      -0.10558452      -0.48643373
63
Lattice="12.6078568 0.0 0.0 0.0 5.4593644 0.0 0.0 0.0 10.2703028" Properties=species:S:1:pos:R:3:forces:R:3 tag=5 energy=-387.49260241 free_energy=-387.49260244 pbc="T T T"
Ga       1.62114004       0.94066301       2.54498001       0.11305479      -0.32862431       0.08377154
Ga       4.71725005       0.95714701       2.54750999       0.20641871       0.04024523      -0.00046161
Ga       7.95262001       0.79290799       2.52460999      -0.08279629       0.81017990       0.41004010
Ga      11.05289994       0.89163502       2.63897998      -0.09181394      -0.34696406      -1.12666965
Ga       0.02761814       3.61530002       2.59039005      -0.07280048       0.25680759      -0.86950540
Ga       3.11201003       3.72028998       2.60333001      -0.29056486      -0.88726442      -0.86758835
Ga       6.26547002       3.66962998       2.58513997       0.58712846      -0.52167661      -0.32713359
Ga       9.48233998       3.62529000       2.52670996       0.42748984      -0.82358094      -0.60697991
Ga      12.59598965       1.75866998       5.13522001      -0.34069927       0.41230516       0.40203586
Ga       3.12519003       1.81099002       5.12318999       0.24911845      -0.68784914       0.33658003
Ga       6.30288006       1.80125002       5.15489000      -0.02805329      -0.37573222      -1.02820299
Ga       9.40518002       1.79820998       5.18088999       0.40984622      -0.05280502      -0.78073735
Ga       1.50996005       4.49704000       5.09289003       0.87983239       0.49606457       0.86537877
Ga       4.70161000       4.51692999       5.20881001       0.18954453       0.35535254      -1.01057691
Ga       7.89258001       4.50946000       5.12294997      -0.25249552      -0.23142383      -0.19525761
Ga      10.96829996       4.48430003       5.10509002       0.39450747       0.11199152       0.38885495
Ga       1.57483995       0.88378598       7.73809001      -0.63934182      -0.09777884      -0.64723109
Ga       4.68129004       0.86278698       7.74586997       0.32020559       0.68936047      -0.33889968
Ga       7.84004004       0.92258798       7.70880003       0.49435701      -0.45812075      -1.22065384
Ga      11.05159994       0.89885498       7.62679002      -0.20914665       0.00240214       0.82426187
Ga       0.02171678       3.69939001       7.67371996      -0.29218902      -0.97563772      -0.43682091
Ga       3.16547995       3.55845002       7.73322004      -0.24974695       1.06274799      -0.01097557
Ga       6.28473004       3.63786002       7.67860996       0.69489392      -0.17543014       0.49467774
Ga       9.45011001       3.62882003       7.71529004      -0.02509840       0.10254086       0.28586124
Ga       0.02750001       1.85574000       0.00889716      -0.85586637      -0.27062892       0.30512924