63
Lattice="12.6078568 0.0 0.0 0.0 5.4593644 0.0 0.0 0.0 10.2703028" Properties=species:S:1:pos:R:3:forces:R:3 tag=1 energy=-392.43259946 free_energy=-392.43265456 pbc="T T T"
Ga       1.58120995       0.92958901       2.53025003      -0.18946285      -0.16029079      -0.35494841
Ga       4.73265004       0.85194102       2.54449001      -0.34581993       0.07639965       0.38962360
Ga       7.81621006       0.84346001       2.58583003       0.80976775      -0.08467692       0.08580216
Ga      10.93499996       0.91012300       2.52615002       1.07788967      -0.27535148       0.23185746
Ga       0.06712990       3.67579999       2.61053001      -0.35594131      -0.14526449      -0.69962302
Ga       3.20272999       3.61493997       2.65820003      -0.26599333      -0.32326788      -0.58910573
Ga       6.30036996       3.57421000       2.59396997       0.64974460      -0.46450567      -0.31436326
Ga       9.44305995       3.62768999       2.49203999      -0.15749039      -0.58220786       0.37039850
Ga       0.03287057       1.92435001       5.14307997      -0.52123566      -0.85159985      -0.71637534
Ga       3.10175001       1.82046999       5.13248995       1.57505593      -0.03697211       0.72973936
Ga       6.32257996       1.71459998       5.13408996      -0.44738784       0.31030178      -0.10732641
Ga       9.48677996       1.81904002       5.13149004      -0.06293264      -0.65341315       0.09142736
Ga       1.56072004       4.63651000       5.18014005      -0.16541023       0.03096964      -0.08863428
Ga       4.71913996       4.48083999       5.13730005       0.59898730       0.22137602       0.43056479
Ga       7.92107994       4.46781002       5.10602996       0.39383600      -0.03869862      -0.16006569
Ga      11.00380003       4.58025998       5.05514995      -0.81822863       0.60344791       0.24034262
Ga       1.59679994       1.06778000       7.74499001      -0.37928871      -0.07962483      -0.57821272
Ga       4.72654998       0.79788998       7.70318998       0.07274416       1.12704885       0.50793717
Ga       7.88449005       0.78883699       7.68139999       0.37193047       0.10707039       0.17300206
Ga      11.01670001       0.90146603       7.70565999       0.57740323       0.50707340      -0.31677917
Ga      12.58596943       3.78300001       7.63875996       0.45421580      -0.27910821      -0.04755562
Ga       3.15203997       3.73460002       7.80073003      -0.71227211      -0.41178042      -0.88527745
Ga       6.33881005       3.50633001       7.68352995      -0.07546144       0.60514391       0.26493347
Ga       9.50708995       3.58412001       7.72106000       0.01643553      -0.22856211      -0.56621266
Ga      12.57913408       1.91934001       0.03359724      -0.22839523       0.19511125      -1.22722934
Ga       3.12434997       1.87367002      10.25270001       0.54791167      -0.90136366       0.34068170
Ga       6.31522000       1.69201000      10.26060003      -0.19010160       0.26274970       0.26693407
Ga       9.47920995       1.80991000       0.00799718      -0.37004128      -0.91425278      -0.50132837
Ga       1.55388002       4.66099001       0.00059722      -0.11435580      -0.58208416       0.16933536
Ga       4.71381995       4.48484001       0.05199721       0.38005765      -0.13422274      -0.14148421
Ga       7.89412006       4.40557998      10.21570002      -0.03107061       1.10954083       0.23168083
Ga      11.07220005       4.55889001      10.24170001      -0.39484317       0.56953726       0.55003889
N       12.58848407       1.81964000       1.90780005       0.18929686       0.38427133       0.77267045
N        3.19272994       1.79712002       1.92767997      -0.80273537       0.47856152      -0.16272559
N        6.26728997       1.72932000       1.96931002       0.57023761       0.80845761      -0.84822680
N        9.40020004       1.78540002       1.89191004      -0.41946050      -0.01225964       0.42688164
N        4.76329003       4.49955999       1.98919004      -1.02653542      -0.27116923      -0.54543760
N        7.85326001       4.48530002       1.87184002      -0.01678966       0.19119778       0.41894699
N       11.04109999       4.48556998       1.93951998       0.70079070       0.91796676      -0.66221289
N        1.61291001       0.94609398       4.41791001      -1.14479956      -0.11053517       0.67314904
N        4.71148006       0.83822601       4.44342001      -0.17909889       0.47000680       1.30631344
N        7.91596002       0.83398102       4.56425002       0.08940025       0.17050189      -1.09915094
N       11.06549998       0.95525900       4.43507005       0.12646200      -0.08136235       0.43834896
N       12.57227428       3.74702002       4.50690999       1.57062117      -0.63608622      -0.21447054
N        3.07641994       3.65391001       4.54920998       0.35326030      -0.10418385      -0.34272569
N        6.37557002       3.57585000       4.49566997      -1.34410392      -0.35362001       0.44598198
N        9.48686998       3.55711002       4.40849995      -0.12200659       0.97898584       0.35815230
N       12.54427626       1.95328000       7.04165000       0.91593685      -0.69448314       0.45746376
N        3.24937994       1.94484998       7.12208999      -0.96377468      -1.18613748      -0.56020269
N        6.32381994       1.70739001       7.06721001      -0.26441571      -0.16010405      -0.09549883
N        9.45767006       1.74316998       7.06134998      -0.39188095       0.76689799      -0.15873039
N        1.60698003       4.69901000       7.08590001      -0.10650450      -0.20200156       0.19481350
N        4.72997995       4.46532000       7.13080999       0.94427380       0.26685935      -1.21398876
N        7.94954004       4.43010999       6.99185002      -0.79980868       0.07046578       1.25546051
N       10.99119999       4.60432000       6.98269004       0.04164004      -0.44967245       0.28617285
N        1.51907994       0.97865200       9.67497997       0.45671251       0.45355758      -0.05824119
N        4.67977004       0.81059201       9.67668998       0.04660715       0.86277873      -0.41812483
N        7.92461998       0.84651998       9.62973005      -0.25846123      -0.51632135      -0.25362828
N       11.04750000       0.93617798       9.59684002       0.24259612      -0.13207370       0.71869447
N        0.02975101       3.76930001       9.54808001       0.08695120      -1.12540263       1.08799750
N        3.07779004       3.66982002       9.68486997       0.32524494       0.36550511       0.71524627
N        6.28739004       3.55031000       9.65226001      -0.14278226      -0.26976167      -0.42282835
N        9.53452995       3.58381002       9.63531997      -0.37712062       0.54063757      -0.27987801
63
Lattice="12.6078568 0.0 0.0 0.0 5.4593644 0.0 0.0 0.0 10.2703028" Properties=species:S:1:pos:R:3:forces:R:3 tag=2 energy=-392.92998764 free_energy=-392.93060674 pbc="T T T"
Ga       1.63218994       0.84994399       2.59618003      -0.81340786       0.61287270      -0.69680806
Ga       4.73772004       0.87244798       2.60371998      -0.06362976       0.59137005      -0.27197669
Ga       7.88805997       0.87929599       2.56519001      -0.25716917       0.29738922      -0.56337509
Ga      11.05190001       0.92510502       2.50806001      -0.05636552      -0.03843885       0.14527271
Ga      12.57368005       3.65777000       2.53707999      -0.48880774      -1.32273034       0.29967847
Ga       3.07514995       3.59061998       2.57494998       0.96286067       0.42380386      -0.01242400
Ga       6.29034999       3.61917000       2.56761000       0.56397096      -0.47601424      -0.08930594
Ga       9.44700003       3.65980001       2.58106995       0.02546368      -0.57452580      -0.04489425
Ga      12.58411696       1.82720002       5.13934004       0.06836774      -1.24393980       0.05458989
Ga       3.08860997       1.75668998       5.16683005       0.74037674       0.06260524      -0.22960219
Ga       6.34382004       1.78909000       5.14119003      -0.17007289      -0.10366967       0.73498713
Ga       9.46734999       1.88458002       5.08428998       0.35081064      -0.70878835       0.41627528
Ga       1.57616000       4.49604001       5.15159005       0.16989683      -0.46668123       0.23714070
Ga       4.74723998       4.49363003       5.09181000       0.11052098       0.17141449       0.09799165
Ga       7.85235994       4.56998999       5.14817004       0.73624533       0.53345955       0.57193688
Ga      11.09749998       4.54389003       5.07216004      -1.08001301       0.73027984       0.57257164
Ga       1.64157006       0.85880601       7.73850000      -0.60813346      -0.05659741       0.00622420
Ga       4.73303004       0.92235699       7.73942002       0.29787039       0.06729340      -0.59918419
Ga       7.85861003       0.96572198       7.72326997       0.01462706       0.39438183       0.16536752
Ga      11.02370002       0.91925799       7.64800005      -0.16356702      -0.27692349       0.24568648
Ga       0.03081335       3.54585003       7.65285995      -0.61880643       1.32420331       0.05922478
Ga       3.22062003       3.61643999       7.77139003      -0.49277696       0.31384005      -0.09903480
Ga       6.27118996       3.69672999       7.71720001       0.49289596       0.17507095      -0.18781485
Ga       9.42115997       3.67664002       7.71978998       0.61699754       0.25378246      -0.73589043
Ga      12.57379630       1.83502001      10.21950003       0.75869340      -1.18746903       0.66321120
Ga       3.17703001       1.76931001       0.02319722      -0.59386926      -0.09232343      -0.33530762
Ga       6.30574998       1.87486000      10.24800002      -0.03028321       0.11305019       0.74294024
Ga       9.50460999       1.83141001      10.23689998      -0.87225838       0.06326269       0.39041454
Ga       1.52391997       4.42722002       0.02929717       0.25515419       1.22974364      -0.19489201
Ga       4.74634999       4.54387998       0.00299718      -0.31225626       0.37121362       0.89618617
Ga       7.87800999       4.57670998      10.25110000       0.36819297       0.51578551       0.71183654
Ga      11.02729994       4.51568002      10.26669998      -0.01382904       0.63169569      -0.71865772
N        0.04617716       1.76045001       1.91383005       0.02197186       0.95000258      -0.23148202
N        3.15945995       1.81523997       1.93315003       0.06389685      -0.57619305       0.82058577
N        6.26491994       1.78938999       1.93353003       0.56747623       0.23031348      -0.15203699
N        9.45677994       1.80014003       1.91360996       0.02291493       0.55527861       0.01433381
N        1.51815995       4.51534001       1.96399000       0.88890901       0.02263912      -0.06067450
N        4.73176005       4.53685001       2.00830996      -1.03829901      -0.44895926      -0.38814561
N        7.88453002       4.50877998       1.93609997      -0.42675753       0.40649792      -0.26337037
N       11.00300006       4.55721999       1.88808004       0.27337788      -0.30514838       0.54545380
N        1.53928996       0.81560098       4.50441000       0.56423399       0.77597387       0.16960066
N        4.74172001       0.91256901       4.52157999      -0.65965540      -0.30843202       0.12372424
N        7.91986001       0.93297699       4.47542001      -0.37284752      -0.41387380       0.38556387
N       11.05880004       0.91235599       4.42312004      -0.37901536       0.12455824       0.68709709
N       12.60576919       3.57400997       4.49468001       0.90741874       0.70654760      -0.58266567
N        6.39204005       3.56554998       4.49816000      -1.57539924       0.84996834      -0.06101294
N        9.44324995       3.70930001       4.53304997       0.41645678      -0.33267709      -0.68102072
N        0.03796982       1.76023000       7.07123001       0.18233216      -0.18141316      -0.38918658
N        3.18540994       1.82501999       7.06803995      -0.48566723       0.14273113       0.16254593
N        6.25917000       1.90244000       7.11638000       0.54235068      -0.68243316      -0.65457391
N        9.43759003       1.86739001       7.05052005       0.15289466      -0.09895695      -0.15055758
N        1.61898006       4.49455997       7.08253997       0.26711012      -0.09076674      -0.30678705
N        4.72508999       4.60370997       7.02005997      -0.37479013      -0.61468619       0.25317552
N        7.85959004       4.63091999       7.11529002      -0.14022489      -0.50460852      -0.63741656
N       11.04389995       4.57390998       6.99650000       0.15561898      -0.74617677       0.66668798
N        1.56253998       0.81468403       9.66571000       0.34433642       0.58506968      -0.00441730
N        4.76960001       0.91332000       9.63789001      -0.55800114      -0.14490940       0.25025407
N        7.85317995       0.96424599       9.68263001       0.77012794      -0.23080797      -0.63083544
N       11.02370002       0.90501500       9.59567999       0.07340403      -0.44499085      -0.11482538
N       12.58553144       3.60523000       9.57774999      -0.19556288       0.20621442       0.17351385
N        3.14661998       3.63088001       9.74066000       0.48438639      -0.52609149      -1.02192766
N        6.33096002       3.72493001       9.64142001      -0.71712947      -0.95430196      -0.15063134
N        9.43112005       3.66976002       9.62911003       0.32643303      -0.27878486      -0.00333716
63
Lattice="12.6078568 0.0 0.0 0.0 5.4593644 0.0 0.0 0.0 10.2703028" Properties=species:S:1:pos:R:3:forces:R:3 tag=3 energy=-392.4671482 free_energy=-392.46714822 pbc="T T T"
Ga       1.58215995       0.79758901       2.58475001      -0.09996075       0.44074849      -0.21668101
Ga       4.74761998       0.89699399       2.58192003       0.20680542      -0.40328742      -0.44356813
Ga       7.82021003       0.96807803       2.57084001       0.76595827      -0.55798751       0.11551276
Ga      11.04410003       0.92259999       2.54973002      -0.01221589      -0.09210581       0.07792972
Ga       0.02595693       3.58595998       2.49665002      -0.60352413      -0.16730804      -0.39914411
Ga       3.16037994       3.56291998       2.59134005       0.44974521       0.10972488      -0.05999725
Ga       6.30830005       3.64214999       2.59339997       0.04613456       0.15768494       0.00386347
Ga       9.45901002       3.67153999       2.59032000      -0.50892726       0.10802273      -0.36520324
Ga       0.01359757       1.78763999       5.09484005       0.03716434      -0.36900048       0.14247329
Ga       3.17803006       1.68662002       5.10693005      -0.27958463       0.47110202       0.49387891
Ga       6.33591995       1.89398000       5.19371996      -0.38144030      -0.91132292      -0.55483425
Ga       9.49801999       1.86530000       5.13191995      -0.56528422      -0.48881892      -0.07241874
Ga       1.49891998       4.41866001       5.14905996       0.32412453       0.12679474      -1.28726009
Ga       4.69701998       4.49666003       5.14519000       0.12236838      -0.02653626      -0.43878034
Ga       7.83777996       4.60778998       5.16263997       0.56503351       0.38599329      -0.43088074
Ga      10.99340006       4.56765999       5.12636998       0.50537000      -0.44633282      -0.56340172
Ga       1.56836002       0.79700999       7.73455004       0.73664238       0.94607137      -0.71944031
Ga       4.73450995       0.89183402       7.69789995       0.13268712       0.23665895      -0.16421962
Ga       7.86406999       1.00362002       7.71924000      -0.00348602      -0.22644197       0.31296508
Ga      11.06229998       0.86523201       7.71823002      -0.43859962       0.07667211      -1.81067395
Ga       0.04490956       3.57777000       7.68034996      -0.69833491      -0.28195758       0.16733163
Ga       3.14231995       3.61484001       7.72426002       0.08582534      -0.92821690      -0.93573245
Ga       6.25131997       3.75897002       7.72532998       1.17919461      -0.64061689       0.24712269
Ga       9.46043004       3.65955002       7.62269001      -1.23252130      -0.17584226       0.72333444
Ga      12.53960127       1.74186999      10.19340001       1.91557345       0.63302964       0.64881996
Ga       3.14706000       1.77288000       0.04389723       0.26334804       0.47837165      -0.24256655
Ga       6.30836006       1.84057000       0.02769716      -0.35228852       0.83337567      -1.11458183
Ga       9.56942005       1.91112001      10.25340004      -2.18971800      -0.44418996       0.98122154
Ga       1.60311005       4.46532999      10.25849996      -0.02525818       0.20310963       0.15378188
Ga       4.74901995       4.59425998       0.01339720      -0.18052143      -0.17071014       0.71164831
Ga       7.91235001       4.60530001       0.06119724      -0.48484882       0.35039070      -1.35107564
Ga      11.05070000       4.58119998      10.20579996      -0.26009645      -1.15640803       0.81524190
N        0.04511986       1.72490999       1.82623002      -0.38103383       0.84201075       0.46477711
N        3.14065004       1.73571003       1.98301995       0.06485792       0.34077557      -0.58693203
N        6.29722997       1.85398001       1.89433003      -0.54578679      -0.02505141       0.86259449
N        9.45580006       1.82481002       2.01378998       0.15958770       0.50987198      -1.46991439
N        1.62396004       4.47330001       1.91202998      -0.57120283      -0.26471097      -0.47073272
N        4.74263004       4.51125001       1.95143004      -0.57076321       0.26727644      -0.12021814
N        7.82506998       4.59154001       1.90425998       0.87571149      -0.13870518       1.42824662
N       11.01549999       4.58026997       1.88138000       0.71692958      -0.75998114      -0.32120851
N        1.55351994       0.77905801       4.50528996       0.15421445       0.36887708      -0.09572147
N        4.79552000       0.83119898       4.46398003      -0.02873316       0.75614634       0.96356387
N        7.86825000       0.95933398       4.49403997       0.28307403       0.06758158       0.19653202
N       11.03320004       0.90062698       4.47246001       0.01789331      -0.01751235       0.24897055
N       12.52857015       3.54945998       4.38381004       0.27187767       0.65417552       1.14565214
N        3.13352004       3.55950002       4.51106002      -0.10695620      -0.24567699       0.12049765
N        6.34294997       3.66506000       4.52638999      -0.85997557      -0.14882463      -0.56757205
N        9.40834005       3.67522997       4.50881000       0.15641258       0.15457484       0.06260404
N        0.05060403       1.76640001       7.04216002      -0.47550958      -0.08333034       0.55011928
N        3.15555996       1.74425000       7.07188998      -0.52848351       0.35595490      -0.19476552
N        6.28514005       1.93527000       7.08225004      -0.01352739      -0.79565867       0.48443752
N        9.47631002       1.81770002       7.07653996       0.33006556      -0.05647295      -0.21853853
N        1.55951006       4.49149001       7.01540003       0.12694078      -0.29376277       1.29727114
N        4.68740006       4.49440001       7.03974999      -0.30456350       1.19573412       0.17501955
N        7.86304005       4.64581003       7.04539003       0.04074875      -0.42536689       0.81028500
N       11.03809996       4.45168999       7.04466002       1.09647952       1.23476169       0.42750230
N        1.57958000       0.84723003       9.64911001      -0.58979056       0.12072310      -0.20668259
N        4.72496000       0.90977998       9.61773002       0.15480564       0.61439854       0.29256753
N        7.87411000       0.99965799       9.66886000       1.05892227      -0.26631917      -0.27498625
N       11.01930000       0.88583701       9.58910001      -0.01765123       0.32350540      -0.06766375
N        3.22367996       3.65515000       9.60499998      -1.18562307      -0.95760508       0.75279178
N        6.29453996       3.76983000       9.64003999       0.77201666      -1.30347810       0.00854058
N        9.43933004       3.69838003       9.58890005       0.87969778      -0.09457811      -0.12170284
63
Lattice="12.6078568 0.0 0.0 0.0 5.4593644 0.0 0.0 0.0 10.2703028" Properties=species:S:1:pos:R:3:forces:R:3 tag=4 energy=-392.65156477 free_energy=-392.6516857 pbc="T T T"
Ga       1.57406003       0.95395498       2.50480001       0.05155815       0.37015562      -0.07634283
Ga       4.67407003       0.94564102       2.63788999       0.46925766      -0.13028188      -1.13644552
Ga       7.82307996       0.80919900       2.54878998       0.54369114       1.33566394       0.50907208
Ga      11.08650000       0.83534701       2.56785002      -1.08692640       1.52730915       0.25959880
Ga       0.06877699       3.72938998       2.51262003      -0.38825566      -0.59511092       0.12363684
Ga       3.15413994       3.67067998       2.61985000       0.64921723       0.53781776      -0.34334079
Ga       6.30844996       3.58909998       2.61324003      -0.52042371       0.22947337      -0.28294820
Ga       9.46281999       3.58748003       2.54229001       0.01879109      -0.61978499       0.17111419
Ga      12.51682946       1.87136999       5.09998999       0.99496700       0.16114490       0.42721834
Ga       3.11071003       1.81572002       5.12106003       0.34602771       0.21642790       0.27711034
Ga       6.29775005       1.74102002       5.16972001       1.15701382       0.63993983       0.03648530
Ga       9.42501999       1.74513000       5.14198998      -0.73568855      -0.21394285      -0.04346517
Ga       1.57112001       4.58445998       5.13758002      -0.31992413      -0.09383551       0.18466261
Ga       4.76615000       4.56997001       5.14896003      -0.15244636      -0.24734195       0.30652372
Ga       7.88402999       4.43732001       5.15322005       0.02323397       0.26894683       0.16406137
Ga      11.02220006       4.50579999       5.12525001       0.02847654      -0.46425073      -0.09970204
Ga       1.59123004       1.02020000       7.67319002       0.35017135      -0.31567756       0.89953203
Ga       4.69545005       0.93379999       7.71923004       0.54405748      -0.42488512      -0.11451970
Ga       7.89844998       0.72680098       7.70714004      -0.43602724       0.59302967      -0.41788044
Ga      11.10480006       0.92999901       7.63915002      -1.20254128      -1.07574973       1.05880913
Ga       0.00281042       3.66546000       7.75292002      -0.10783858       0.61860979      -0.12803998
Ga       3.10871005       3.71893999       7.63494998       0.11273041       0.10413310       0.19186835
Ga       6.23721002       3.55898002       7.76452002       0.42680247      -0.22298511      -0.50057820
Ga       9.48267005       3.54277002       7.69046004      -0.30627803      -0.22900362       0.02612597
Ga      12.56690144       1.88687999       0.00009716       0.74922868      -0.08118592       0.11692624
Ga       3.24103001       1.89647002      10.25580000      -0.49385930       0.05622248      -0.38961108
Ga       6.38881004       1.79591999       0.00139717      -0.64767267      -0.39894210      -0.09905266
Ga       9.44168998       1.77999999       0.00619720      -0.09961055      -0.49942274      -0.19394644
Ga       1.60366000       4.61202999      10.24289999       0.07003987       0.44403494      -0.43415085
Ga       4.74381001       4.52232002      10.23800003       0.12735918       0.79093903       0.72193655
Ga       7.93804999       4.45882003      10.26289997      -1.31233287       1.13162752       1.07478434
Ga      11.00650000       4.54742000       0.00169717      -0.07664384       0.46357150      -0.35816207
N       12.57268907       1.90447001       1.96910996       0.30592799      -0.46456405      -0.04963120
N        3.12405999       1.92903999       1.89477997       0.52411442      -0.91529524       0.69103260
N        6.30866996       1.79486000       1.88689002      -0.37120768      -0.01719498       1.17490418
N        9.43886998       1.72680002       1.91473004       0.19675260       0.36682564       0.53562896
N        1.64586001       4.59791999       1.88710005      -0.62641930       0.16480385       0.72744779
N        4.73683005       4.58813998       1.92311995      -0.00656642      -0.29008905       0.50694659
N        7.87392000       4.51167999       2.01881001       0.23919362      -1.14725302      -1.63148531
N       11.04040001       4.54531001       1.93152999       0.09309969      -0.65932870       0.26916641
N        1.51760003       0.91157399       4.44146999      -0.13616423       0.57406826       0.39951799
N        4.75210005       0.93415299       4.56208001      -1.46710898      -0.43741407      -0.83629531
N        7.86233994       0.77549502       4.48579004      -0.01375626       0.87010285       0.38956529
N       11.00510002       0.86545901       4.54274996       0.55787508      -0.09444722      -0.87617485
N        3.15469998       3.67839002       4.55254002      -0.57248085      -0.31541923      -0.42971498
N        6.28600999       3.59706001       4.56395002       0.02300542      -0.58368902      -0.70192042
N        9.46057995       3.55141001       4.47840004       0.58497012       0.09209224       0.19300135
N       12.60662300       1.88314999       7.11317002       0.40323815       0.29416202      -1.56600913
N        3.18957999       1.91835001       7.06006999      -0.64894396      -0.89001264      -0.35133380
N        6.33752998       1.72262000       7.06965002      -0.13835329       0.25058485       0.59395135
N        9.43231994       1.67933002       7.07842004       0.44157528       0.76839511      -0.20811309
N        1.51738999       4.64759999       7.07308000       0.08023502      -0.34132605      -0.53582631
N        4.72335994       4.54217999       7.06911001       0.23154259       0.46938378       0.17567090
N        7.85117001       4.36333001       7.08904005       0.30006060       0.57138668      -0.15910484
N       11.03520002       4.51264002       7.02557995       0.02092305       0.08551971       0.53864641
N        1.60822001       1.02101000       9.65809005      -0.23115910      -0.27429696      -0.36907232
N        4.79504002       0.92007198       9.64332002      -0.58682107       0.00778259      -0.11181386
N        7.86372995       0.82535102       9.59477004       0.82364388      -0.09664849       0.79670973
N       11.04759998       0.93515899       9.64197995      -0.11315104      -0.52086663      -0.62914556
N        0.00188210       3.72790001       9.66633002       0.07813082      -0.50383830      -0.11509844
N        3.15681003       3.74233998       9.53754997      -0.03591660      -0.79690477       0.77264694
N        6.32656001       3.60196001       9.69689998      -0.18305677       0.09186433      -0.62170554
N        9.42835994       3.58676998       9.64731003       1.45066262      -0.13503010      -0.50367174
63
Lattice="12.6078568 0.0 0.0 0.0 5.4593644 0.0 0.0 0.0 10.2703028" Properties=species:S:1:pos:R:3:forces:R:3 tag=5 energy=-392.85180535 free_energy=-392.85215583 pbc="T T T"
Ga       1.62114004       0.94066301       2.54498001       0.14045855      -0.34454480       0.06591022
Ga       4.71725005       0.95714701       2.54750999       0.22191115       0.03416215      -0.29648941
Ga       7.95262001       0.79290799       2.52460999      -0.12900492       0.77572240       0.38702134
Ga      11.05289994       0.89163502       2.63897998      -0.08437081      -0.34861128      -1.12077539
Ga       0.02761814       3.61530002       2.59039005      -0.03920461       0.24507121      -0.84944033
Ga       3.11201003       3.72028998       2.60333001      -0.29394842      -0.89413029      -0.86690218
Ga       6.26547002       3.66962998       2.58513997       0.59242751      -0.52866372      -0.33722051
Ga       9.48233998       3.62529000       2.52670996       0.37538713      -0.82635952      -0.59087688
Ga      12.59598965       1.75866998       5.13522001      -0.34538297       0.45791169       0.43173609
Ga       3.12519003       1.81099002       5.12318999       0.05250282      -0.50902606       0.45888923
Ga       6.30288006       1.80125002       5.15489000       0.15411222      -0.22056991      -0.91401099
Ga       9.40518002       1.79820998       5.18088999       0.38618547      -0.00561814      -0.73675617
Ga       1.50996005       4.49704000       5.09289003       0.88025143       0.46304615       0.88981674
Ga       4.70161000       4.51692999       5.20881001       0.19726582       0.11713895      -0.86002348
Ga       7.89258001       4.50946000       5.12294997      -0.27139374      -0.25907088      -0.16412353
Ga      10.96829996       4.48430003       5.10509002       0.37900316       0.07052854       0.39956691
Ga       1.57483995       0.88378598       7.73809001      -0.61049521      -0.13692227      -0.62567840
Ga       4.68129004       0.86278698       7.74586997       0.32007595       0.67182018      -0.30676344
Ga       7.84004004       0.92258798       7.70880003       0.46652553      -0.49127877      -1.21275098
Ga      11.05159994       0.89885498       7.62679002      -0.23323776      -0.02060150       0.81839445
Ga       0.02171678       3.69939001       7.67371996      -0.27518510      -0.96260265      -0.43778490
Ga       3.16547995       3.55845002       7.73322004      -0.24450614       1.06151410       0.00212280
Ga       6.28473004       3.63786002       7.67860996       0.68918348      -0.17721291       0.50529401
Ga       9.45011001       3.62882003       7.71529004      -0.06601666       0.10621555       0.27446411
Ga       0.02750001       1.85574000       0.00889716      -0.81030144      -0.23980197       0.35632037