63
Lattice="6.43258 0.0 0.0 0.0 11.1415596 0.0 0.0 0.0 10.4799004" Properties=species:S:1:pos:R:3:forces:R:3 tag=1 energy=-392.22648132 free_energy=-392.22836616 pbc="T T T"
Ga       1.56302997       0.94962699       2.56888003       0.89077328      -0.73247224       0.97415921
Ga       4.81349003       0.88614896       2.68510999      -0.00965331      -0.48804900      -1.32264472
Ga       6.40092103       3.67855002       2.60299001       0.49420430       0.34794016      -0.02842078
Ga       3.24326001       3.77458001       2.64641002      -0.70010528      -0.45913927      -0.12216864
Ga       1.61269997       6.47004995       2.54794004      -0.10559623       0.43129853       0.85372191
Ga       4.80778002       6.51033994       2.57717005       0.35075296      -0.20945879       0.44336228
Ga       0.01426753       9.25559004       2.61007002      -0.17258203       0.33628122       0.56608178
Ga       3.23534999       9.27018002       2.67880004       0.09324784       0.02409422      -0.80086778
Ga       6.38444102       1.81532996       5.26100998       0.99582333       0.58332861      -0.61316188
Ga       3.22902998       1.90313002       5.24310004      -0.77942796      -0.39886921      -0.73996624
Ga       1.55558001       4.68343001       5.22026004      -0.20858591       0.37131379       0.04304086
Ga       4.80643002       4.69662005       5.22799997       0.14743599      -1.17107537       0.52853868
Ga       6.41612533       7.38768005       5.31517000       0.23889357       0.01099183      -1.01459012
Ga       3.26600001       7.37780005       5.18578001      -0.41250975       0.01757265       0.79892707
Ga       1.57529002      10.14399995       5.22744998       0.54566846       0.58125744      -0.44539448
Ga       4.86190999      10.16909999       5.29541004      -0.16273502       0.02623775      -0.70602482
Ga       1.64677001       0.85787602       7.80943000       0.17077993       0.33598864      -1.13918166
Ga       4.89249999       0.98608797       7.84222999      -0.57401975      -0.50269428      -0.36965812
Ga       0.05456172       3.75368000       7.90171998      -0.40873255       0.15792350      -1.18500314
Ga       3.23946002       3.80220996       7.87234000      -0.07747031      -0.53964924      -1.06484406
Ga       1.63519001       6.49956004       7.91561004      -0.60685510       0.09797764      -0.70550085
Ga       4.81712997       6.50651003       7.95355001       0.45458345      -0.45509240      -1.59487436
Ga       6.35017009       9.19656996       7.83792998       0.75121905       0.34170717       0.18950765
Ga       3.21354998       9.21579996       7.81770000      -0.23002959       0.19982399      -0.03300422
Ga       6.38480748       1.79173002       0.01139962      -0.44006555       0.99255036      -0.22692618
Ga       3.21227002       1.85012004       0.03089957       0.71216239       0.32269934       0.09097325
Ga       1.58735001       4.63750004      10.43390003      -0.21267237       0.19827972       0.62950862
Ga       4.76886002       4.66564997      10.44790002       0.34395270      -0.12235136       0.42123991
Ga       0.04046080       7.40044995       0.04759960      -0.44530570       0.07445328       0.27658341
Ga       3.22228002       7.44894002      10.43359999       0.13340245       0.63411602       0.68933334
Ga       1.64646999      10.16270005      10.47970002      -0.01026675      -0.65113253       0.35035661
Ga       4.92616998      10.19090001      10.43530004      -0.66814594      -0.56556516       0.52514213
N        6.42532231       1.79516998       1.93462001      -0.52561246       0.56989619      -0.04844710
N        3.22983000       1.86186001       1.99646001      -0.25377187      -0.05066940      -0.34031089
N        1.60530000       4.62066002       1.93215995      -0.20817244      -0.11501396       0.09514211
N        4.81973002       4.63531997       1.95501997       0.14717903       0.20883378      -0.37011590
N        6.41471962       7.45540001       2.02225995       0.35498451      -1.00754867      -0.88557151
N        3.23399002       7.43263000       1.92142005      -0.41512838       0.02031017       0.36099480
N        1.59950997      10.18620006       1.97592999       0.50843497       0.48826190      -0.41712589
N        4.85996999      10.15590003       1.95144004      -0.41284876       0.67151057       0.06043159
N        1.55885002       0.87317896       4.55596001       0.51458940       0.54220714       0.37815708
N        4.83009001       0.89682703       4.56996996      -0.46875447       0.07496879       1.02427455
N        6.41054050       3.71535995       4.57514001      -0.28006857      -0.41415899       0.01536820
N        3.14815997       3.81292001       4.61929005       0.88301632      -1.05648313      -0.48029311
N        1.59335000       6.58117999       4.59857998       0.28218165      -1.03582485      -0.70098410
N        4.86683998       6.44480005       4.58134998      -0.36072869       1.19486335      -0.68630438
N        0.03927257       9.19693998       4.59500005      -0.93918453       0.57858051      -0.07027735
N        3.23074999       9.25161005       4.62403996       0.28005145       0.17119826       0.02357681
N        0.05460251       1.90623996       7.20765001       0.22234188      -0.57837979       0.60700472
N        3.28007000       1.90513004       7.17794997      -0.59347602      -0.36756151       0.97993231
N        1.61345998       4.70422996       7.16629004      -0.00575836      -0.55534946       0.83680053
N        4.85316001       4.69210003       7.19412004       0.07325967      -0.52576270       0.56534505
N        6.40716719       7.36789999       7.20596998       0.22048207       0.18198892       0.89319869
N        3.23530001       7.31372004       7.23158003      -0.07019952       1.35347455      -0.55059139
N        1.55209002      10.10789996       7.15973004       0.40814787       0.70759034       1.11868844
N        4.80931001      10.22230005       7.23089998       0.03698755       0.01810252      -0.01577348
N        4.80401999       0.87052905       9.77326995       0.19103453       0.58141970       0.54485377
N        6.39855191       3.68998003       9.80952999       0.18543356      -0.19811485       0.66374273
N        3.16232998       3.69665004       9.79952997       0.25934352      -0.23363307       0.29089576
N        1.62891998       6.55852998       9.85957005      -0.18923762      -1.16436184      -0.18774486
N        4.82425000       6.57120005       9.82017002       0.31603918      -0.88865748       1.14589154
N        0.07926521       9.19205997       9.81138996      -0.40242885       1.29555899      -0.13695582
N        3.24699000       9.34288003       9.78840995       0.14372276      -0.25753300       0.01795242
63
Lattice="6.43258 0.0 0.0 0.0 11.1415596 0.0 0.0 0.0 10.4799004" Properties=species:S:1:pos:R:3:forces:R:3 tag=2 energy=-392.33387548 free_energy=-392.33540508 pbc="T T T"
Ga       1.57872997       0.89323198       2.64011998       0.07419885       0.24474913       0.29595537
Ga       4.78460003       0.95437095       2.63267999       0.15209334      -0.44016670      -0.76741966
Ga       0.00254872       3.66697004       2.54773998      -0.14093609       0.30111625       0.54373387
Ga       3.18077000       3.65489002       2.62754002      -0.19369452       0.91474351      -0.19641837
Ga       1.64027998       6.51631004       2.60246004      -0.05361388      -0.17134876       0.27759417
Ga       4.87657003       6.46683995       2.61791999      -0.16640337       0.31118670      -0.61282478
Ga       0.03934378       9.32215996       2.64612004      -0.83517133      -0.20021260       0.04489838
Ga       3.17957997       9.31573997       2.55776997       0.27904799      -0.45890021       0.03611371
Ga       6.37037393       1.88549995       5.23310001       0.96886407      -0.51837224       0.26527335
Ga       3.20159998       1.86938000       5.26117996      -0.73484590      -0.10889633       0.30673740
Ga       1.57730998       4.57733996       5.30804996       0.32688393       1.14345210      -0.19819392
Ga       4.81877002       4.63477002       5.18300001      -0.43144373       0.11592192       0.16306692
Ga       6.43232077       7.38193000       5.19248998       0.36050244       0.30778878       0.71903098
Ga       3.26646001       7.49025003       5.27680004      -0.45062884      -1.02694505      -0.26856934
Ga       1.67943999      10.19259999       5.28914998      -0.79205033      -0.84047987       0.18623642
Ga       4.81579000      10.15929999       5.23754003       0.53201222      -0.54449756      -0.07095944
Ga       1.65942000       0.89878304       7.86003995      -0.25267210       0.04058563      -0.03849807
Ga       4.84514000       0.91629701       7.80788002       0.23084097       0.35303267       0.57574693
Ga       0.04993773       3.71552997       7.79702997      -0.23742867       0.03908535       0.72255912
Ga       3.31050999       3.74064995       7.91918002      -0.47194329       0.10627432      -0.12391163
Ga       1.58981002       6.48822005       7.92641995       0.32956029       0.34921436      -0.27726608
Ga       4.84908002       6.49867005       7.86014999      -0.20565701      -0.24257454      -0.30304390
Ga       6.36886240       9.25742995       7.87954996       0.83444132       0.20979077      -0.24558022
Ga       3.19297003       9.29207998       7.83238003      -0.35012161      -0.55352981       0.50280457
Ga       6.41812130       1.83862005      10.46499997      -0.53478537       0.09272135      -0.35891721
Ga       3.15386998       1.83171997       0.01279963       0.44668259      -0.24269611      -0.65296291
Ga       1.48378998       4.61263999       0.02559957       1.32635028       0.46744601      -0.55726119
Ga       4.78968003       4.63136004       0.00569960      -0.38144873      -0.17927223       0.23197565
Ga       0.03782878       7.42926002      10.44529996      -0.43120957      -0.05723281       0.52050177
Ga       3.21836000       7.41751002      10.46240001       0.65520012      -0.09917337       0.39983062
Ga       1.71434001      10.17579997      10.46140002      -1.00401269       0.38266992       0.21430643
Ga       4.88567001      10.21079995      10.47509998       0.01386847      -0.02018031      -0.50149428
N        6.41319819       1.80959997       1.95969998      -0.07110125       0.11694592       0.47658761
N        3.18088997       1.84797005       1.96834003      -0.06838462      -0.50852857       0.59096027
N        1.57246001       4.61519999       1.92573001       0.29209468       0.31959966       1.09236602
N        4.79956999       4.57249996       2.00632998       0.05622468       0.57620247      -0.43140983
N        0.01874589       7.51511999       1.93878996       0.05837543      -1.07825976       0.42294032
N        3.27817000       7.43690001       1.96456003      -0.43869418      -0.08302825      -0.07540494
N        1.55998003      10.24849998       1.95215005       0.83534779      -0.39130810      -0.23394140
N        4.79529001      10.23310000       1.95163999       0.40493254       0.22091517       0.70776647
N        1.57008001       0.79779795       4.66250999       0.22468838       2.34775438      -1.03441720
N        6.40479872       3.70111000       4.54602999       0.16844032      -0.30367215       0.09181450
N        3.16744002       3.69028999       4.59394001       0.40904805      -0.21970237      -0.09987472
N        1.65122997       6.52119004       4.64782000      -0.09488739      -0.72397909      -0.64060655
N        4.82579002       6.48266999       4.54809998      -0.01348720       0.21956889       0.61751688
N        0.07612868       9.28260999       4.64245995      -1.09587743       0.18175608      -0.51919482
N        3.19901003       9.29393995       4.51456996       0.83905156       0.25721147       0.63870925
N        0.05910538       1.85065004       7.20769004      -0.49133590      -0.19037157      -0.44972018
N        3.27054000       1.91018998       7.24632996      -0.29423339      -0.75437027      -0.69023982
N        1.67424002       4.66685003       7.30343997      -0.21959373      -0.54417198      -0.82604426
N        4.87555999       4.62984000       7.13998004      -0.09301869       0.27372948       0.57973989
N        0.01968691       7.42971002       7.23569003      -0.36094083      -0.22219709      -0.45099703
N        3.19742003       7.41793997       7.24971004       0.46390412       0.13040101      -0.25822675
N        1.58325999      10.17310003       7.21775002       0.06941986       0.39362586       0.29852847
N        4.77220001      10.20239999       7.21091995       0.50973892       0.25540714      -0.57834190
N        1.53256997       0.87809305       9.83576998       1.02857434       0.31882214      -0.20538737
N        4.81552999       0.93489205       9.76598999      -0.28823575      -0.22624974       0.70437919
N        6.39589062       3.73450995       9.80537995      -0.50687803      -0.79421007      -0.16441123
N        3.13360999       3.68233001       9.87809998       0.56577555       0.35287275      -0.18055010
N        1.63990001       6.49753996       9.90374995      -0.42886746      -0.55082983      -0.64393600
N        4.83996003       6.47635005       9.81646999       0.01040463       0.10406243       0.25562606
N        0.12081299       9.25323003       9.82695000      -1.30993344       0.48035385      -0.06351019
N        3.23259003       9.24479999       9.79776001       0.97696860       0.36634984       0.23623469
63
Lattice="6.43258 0.0 0.0 0.0 11.1415596 0.0 0.0 0.0 10.4799004" Properties=species:S:1:pos:R:3:forces:R:3 tag=3 energy=-392.05987367 free_energy=-392.06172834 pbc="T T T"
Ga       1.59675001       0.93530295       2.55272998       0.15863559       0.09980945       0.80328304
Ga       4.80783000       0.98923000       2.61753999       0.39185225      -0.90847520      -0.33270976
Ga       0.02766479       3.69873006       2.61984997      -0.78738574       0.25480142      -0.08326888
Ga       3.14832999       3.64740000       2.60682995       0.65183812       1.30253338      -0.56389875
Ga       1.70453998       6.58794002       2.63193005      -0.47497163      -0.94894926      -0.25657203
Ga       4.89613003       6.42711004       2.65805005      -0.04492361       0.24923635      -0.69149626
Ga       0.01485251       9.33890996       2.60850003      -0.26028957      -0.00194914      -0.06519860
Ga       3.20896998       9.25408002       2.61829004       0.38624457       0.34724968      -0.39273708
Ga       6.40297669       1.83755002       5.18825998      -0.44066669       0.14102982       1.19301622
Ga       3.19088002       1.78835000       5.33014997       0.16704013      -0.45909009      -0.26081393
Ga       1.64025001       4.56058005       5.16703996      -0.46554235       1.07087879       0.27360836
Ga       4.79293999       4.56928996       5.26982997       0.46355371       0.43151379       0.54357306
Ga       6.42492562       7.43073995       5.28123000       0.38169340       0.13308692      -0.55670130
Ga       3.23582002       7.40590998       5.20767997      -0.18574725       0.05860788       0.05669299
Ga       1.65401000      10.22849999       5.20753996      -0.02297749       0.22433466       0.58804346
Ga       4.84136002      10.20369999       5.31533003       0.34925626      -0.21616101      -0.78774075
Ga       1.61720998       0.93212204       7.88072004      -0.37321897       0.01733446      -0.41853288
Ga       4.81441999       0.86009798       7.93306997       0.50092615       0.29230893       0.16828345
Ga       0.07477701       3.66624996       7.87146996      -0.81799625      -0.27198228      -0.10808465
Ga       3.26035999       3.64986006       7.80983997      -0.40008505       0.62106035       1.07484692
Ga       1.60820000       6.47318997       7.84160004      -0.43565605      -0.03428174      -0.56161302
Ga       4.81168003       6.53640005       7.78846003      -0.19998952      -0.41742652       0.59956973
Ga       6.37522371       9.33211996       7.94647995       0.88942198      -0.31761567      -0.56782181
Ga       3.17315003       9.28691999       7.85618995      -0.52629155      -0.16570918      -0.32701463
Ga       0.03883818       1.87365001      10.43469996      -1.14672157       0.45577494       0.33702087
Ga       3.15837002       1.83764996       0.02229955       0.51065814       0.54434334      -0.40106098
Ga       1.53421999       4.67833998       0.00079962       0.62092604      -1.37460297       0.16937708
Ga       4.72251000       4.63400995      10.47090005       0.17831519      -0.29972194      -0.31135506
Ga       0.05442818       7.42719003       0.04339957      -1.04249252      -0.15826479      -0.08174484
Ga       3.18327999       7.32322000      10.43000004       0.74369234       1.30114189       0.29027804
Ga       1.69528002      10.27629995      10.42739998      -0.44403650      -1.27381841       0.50108013
Ga       4.87638998      10.23669995      10.45380000      -0.61689022      -0.69344009       0.75373730
N        0.05215832       1.89659003       1.91411000      -0.78514365      -0.49195626       0.54556057
N        3.20562002       1.89273995       1.95677001      -0.01385542      -0.82310751       0.64405256
N        1.59995999       4.62430999       2.00173999       0.14284288       0.83805653       0.06340725
N        4.79088003       4.57770998       1.95360005       0.07938596       0.15258706       0.82739696
N        0.05851197       7.45753997       2.03976003      -0.18603781      -0.35358428      -0.61872494
N        3.32385998       7.39500005       1.93215000      -0.49097016       0.21918197       0.14020687
N        1.63379999      10.26919999       1.91201004       0.04320082      -0.72445964       0.48880312
N        4.78646001      10.20669997       1.95090996       0.52633078       0.58466851       0.29100343
N        1.56439001       1.00791996       4.59536999       1.00599192      -0.62233858      -0.59655292
N        4.78977999       0.90625702       4.61040005      -0.15017280       0.55673551      -0.31854453
N        6.38862399       3.70824996       4.61538000       0.33257831      -0.52673180      -0.70189742
N        1.62073002       6.50737005       4.55684001       0.06992509      -0.66103198       0.66164376
N        4.82965999       6.37924000       4.59401001      -0.12741371       0.90048977       0.43411347
N        0.08168592       9.34133002       4.59094998      -1.15749202      -0.67180881       0.01427299
N        3.25882003       9.28198996       4.58918999      -0.03569079      -0.09317890       0.00324705
N        6.38729682       1.77146998       7.22868998       0.58167075       0.70818654      -0.11016340
N        3.28536999       1.80324003       7.28290995      -1.02127841       0.20686247      -0.82818291
N        1.61881002       4.57402000       7.13269001       0.58851902       0.32932916       0.24904055
N        4.85789001       4.58037002       7.26034997      -0.21365082       0.58528768      -0.89143246
N        6.41283577       7.50811998       7.23524998       0.16420111      -0.85171654      -0.09536707
N        3.13768998       7.45585002       7.16161998       0.74371530      -0.47165067       0.27953938
N        1.56478002      10.26869996       7.20145000       0.21573415      -0.62979131       0.12878286
N        4.77619001      10.17559998       7.25858998       0.23487336       0.32461424      -0.13960688
N        1.58792000       0.92732805       9.83469003       0.19414874       0.35967168      -0.37473467
N        4.77078001       0.93745896       9.92413996       0.74891234       0.06924315      -0.83159371
N        6.37011682       3.77280995       9.84294997       0.39137826      -0.74170926      -0.25645562
N        3.15589000       3.64363003       9.81235998      -0.29563091       0.81358791      -0.04599810
N        1.58502000       6.44049997       9.79805995      -0.08976089       0.72273295       0.00517194
N        4.79010998       6.46504003       9.78977003       0.64168634       0.37549963       0.06888702
N        0.04525790       9.27950996       9.89760003       0.04595241       0.21405083      -0.39533543
N        3.23325001       9.27373006       9.77432004       0.10787848      -0.30127782       0.77541486
63
Lattice="6.43258 0.0 0.0 0.0 11.1415596 0.0 0.0 0.0 10.4799004" Properties=species:S:1:pos:R:3:forces:R:3 tag=4 energy=-392.46846035 free_energy=-392.46940197 pbc="T T T"
Ga       1.55165003       0.91689699       2.55006002       0.60041975       0.68044600       0.42522048
Ga       4.81833003       0.96556299       2.57349003       0.06242199      -0.19637803       0.07941461
Ga       6.41778667       3.78662003       2.61023005       0.10267568      -0.73010782       0.01352993
Ga       3.20170001       3.78780003       2.70490998      -0.35751379      -0.76325529      -1.15535137
Ga       1.66489997       6.50371996       2.61601003      -0.16789372      -0.37983847       0.22351294
Ga       4.89672002       6.46708005       2.63479997      -0.12903919      -0.29691766      -0.03078382
Ga       0.03387287       9.25547004       2.61670998      -0.52493608       0.33068852       0.17630535
Ga       3.23543998       9.18773003       2.61356999      -0.12386950       0.99250650      -0.23255343
Ga       6.41669912       1.84321004       5.22913002       0.05080778      -0.40671585       0.04163309
Ga       3.20471998       1.83463004       5.22150998      -0.49260039      -0.04498380       0.30829686
Ga       1.61376997       4.61197996       5.31243003      -0.35970799       0.10933448      -0.42999639
Ga       4.83724002       4.58008001       5.24548002      -0.03040267      -0.02008206       0.15858711
Ga       6.39526100       7.45607998       5.27681996       0.58725840      -0.65899120      -0.85282989
Ga       3.23851000       7.37209000       5.20014995      -0.36217623       0.27477612       0.08160064
Ga       1.59681999      10.18099996       5.23709998      -0.29635704       0.28806465      -0.28313578
Ga       4.79998997      10.18599995       5.25254997       0.20345277       0.47777732      -1.11561382
Ga       1.63591001       0.93060400       7.92838001      -0.02728392       0.06377020      -0.66758323
Ga       4.82667997       0.86700497       7.88793996       0.20290416       1.05177818      -0.48367471
Ga       0.00298961       3.72990002       7.85577002       0.11369735      -0.78334874      -0.20366918
Ga       3.24681002       3.71560996       7.88919996      -0.35525500      -0.34159884      -0.46096031
Ga       1.66652999       6.50948004       7.88527995      -0.76632877      -0.07249950      -1.15307686
Ga       4.81199999       6.43507002       7.80674997       0.39149871       0.41471061       0.26721774
Ga       6.32476198       9.30847000       7.87885001       1.56714490      -0.64540445      -0.49309830
Ga       3.22839998       9.25604996       7.80308001      -0.92912218      -0.14792728       0.41149204
Ga       6.41920853       1.89793003      10.41589996      -0.17260106       0.32327349       0.86029309
Ga       3.24034000       1.82906004       0.00069964      -0.32903718       0.46825139       0.47574178
Ga       1.58469998       4.64384003       0.00909959       0.19034903      -0.18732383      -0.75816342
Ga       4.78709998       4.63747999      10.44510000       0.31347396      -0.33263624       0.15129906
Ga       6.42474595       7.41744005       0.00939963      -0.31971981      -0.62882121      -0.38384857
Ga       3.18831001       7.39468999       0.03209962       0.81771490       0.61296682      -0.92863004
Ga       1.63890997      10.23369998      10.45929995       0.53794308       0.04473093       0.33398352
Ga       4.91565998      10.18389999       0.01559965      -0.59842823       0.02889323       0.32329890
N        0.00428448       1.94155001       1.92744997      -0.28016141      -0.63295448       0.07940808
N        3.22097002       1.91860999       1.97642003      -0.42760721      -0.43185151      -0.00187707
N        1.57969003       4.67259005       1.91900998       0.38946056       0.00966594       0.84046784
N        4.78644000       4.60039998       1.93164005       0.33631743       0.87860279       0.34083312
N        0.06623312       7.42668999       1.95846995      -0.37588799      -0.06071604      -0.10771934
N        3.29179003       7.35966995       1.94880004      -0.31030135       0.34388462       0.42400481
N        1.58107001      10.20360005       1.96009004       0.60072626      -0.50328246      -0.51243145
N        4.83046001      10.16579997       1.99708000       0.26343498       0.32201431      -0.56269321
N        1.56816999       0.89703003       4.54472000       0.27435855       0.04497071       0.10014641
N        4.77266997       0.92519600       4.54529996       0.59044118      -0.30315398       0.46690038
N        6.42161811       3.67498995       4.58459005       0.37340352       0.40385695      -0.02446537
N        3.20434000       3.71442996       4.62137995      -0.05652380      -0.24499683       0.20731315
N        1.63399001       6.43984997       4.58049000      -0.60180252       0.57394952       0.15299407
N        4.82630997       6.40691998       4.62911998       0.46733833       0.82758198      -0.74026695
N        6.39370187       9.27550000       4.55888998       0.32795081      -0.09765268       0.44711281
N        3.21225002       9.28467998       4.55931001      -0.17094149      -0.64226673       0.39287824
N        0.09219849       1.84537997       7.19954004      -1.33551786      -0.08414463       0.29243943
N        3.21397003       1.87328000       7.24670996       0.53185594      -0.64990846      -0.34636237
N        1.60237999       4.59883003       7.25786005       0.51238197       0.91921695      -0.20438168
N        4.84400001       4.58940995       7.20002997      -0.26118534       0.27826026      -0.06624896
N        6.39504860       7.44556001       7.18733001       0.56391177      -0.11135582       1.16177620
N        3.25294998       7.39296004       7.15467003      -0.41922255       0.24954244       0.26688700
N        1.56443999      10.24219998       7.20486005       0.16486244      -0.75340432       0.71560299
N        4.79945999      10.17359995       7.17965002      -0.21552462       0.72025995       0.39046345
N        1.56129002       0.96031097       9.89197002       0.72931707      -0.75457619      -0.52852509
N        4.84701001       0.89792202       9.87776001       0.06482359      -0.24155428      -0.65482148
N        6.43216047       3.72507996       9.77542997      -0.24611128       0.26783501       0.71047041
N        3.20652000       3.67469002       9.80843002      -0.13550079       0.38583634       0.56315203
N        1.60883998       6.55026996       9.78450996      -0.30257260      -0.22087402       0.89077310
N        4.80501002       6.46963002       9.77922002       0.17567790       0.70587657       0.39427251
N        3.28493000       9.32451005       9.79134003      -0.62689118      -0.72380008       0.21343891
63
Lattice="6.43258 0.0 0.0 0.0 11.1415596 0.0 0.0 0.0 10.4799004" Properties=species:S:1:pos:R:3:forces:R:3 tag=5 energy=-392.49657549 free_energy=-392.49835911 pbc="T T T"
Ga       1.56930997       0.91482198       2.62877004       0.27668331       0.21371145       0.31922182
Ga       4.81302000       0.94243199       2.63619002      -0.26734024      -0.28783674       0.02328987
Ga       6.37379709       3.71205001       2.55897003       0.20738440       0.23925855       0.41804576
Ga       3.21805999       3.73507003       2.66081999      -0.36793214      -0.09798506      -0.68685104
Ga       1.60386000       6.53191000       2.59239001       0.30519384      -0.79662736       0.41883682
Ga       4.89051998       6.59578000       2.53772004      -0.72823099      -1.16503353       0.59708525
Ga       0.05732458       9.25800998       2.67602004      -0.72349238       0.55153019      -0.18934514
Ga       3.24727001       9.25063995       2.60370998       0.08212700       0.94834470       0.59090789
Ga       0.00732555       1.84931004       5.20448003      -0.52782876      -0.05948222       0.14306496
Ga       3.23140997       1.87887005       5.21382999      -0.09832439      -0.84971906       0.22315143
Ga       1.60926999       4.61781001       5.30913997       0.32409207       0.14577473      -1.52102622
Ga       4.86757999       4.67550000       5.24655002      -0.35039405      -0.42044289      -0.05581963
Ga       6.38996281       7.33383000       5.23191002       0.65795274       0.89023642       0.17821296
Ga       3.22004997       7.41549997       5.25100995      -0.19170417       0.05342734      -0.61720602
Ga       1.58746998      10.14050005       5.22216005       0.04131358       0.31252895       0.03313839
Ga       4.76025001      10.13399995       5.25786004       0.81697656       0.97437933      -0.20465693
Ga       1.65462998       0.89726400       7.81183995      -0.37244089       0.29737241       0.07959524
Ga       4.85390001       0.98548097       7.89007000      -0.29973392      -0.31672560      -1.10823483
Ga       0.01451023       3.68710997       7.82934003      -0.20871668      -0.34380383      -0.03236458
Ga       3.18672998       3.73678996       7.92731001       0.12738316      -0.47788188      -0.90453184
Ga       1.62664999       6.49306005       7.88843000      -0.28216863       0.02108413      -0.39200254
Ga       4.88484001       6.41705000       7.85643004      -0.88188418       0.39298703       0.06783586
Ga       6.38352958       9.21335996       7.83481001       0.61958689       0.74198303       0.00407543
Ga       3.22560000       9.27470996       7.82934003       0.01772541      -0.05528303      -0.76404094
Ga       6.41371028       1.81431998      10.46979998       0.29127097       0.42668832       0.23885777