       N       E                     dE             d eps       ncg     rms          rms(c)
DAV:   1     0.484323675771E+04    0.48432E+04   -0.10720E+05  5872   0.320E+03
DAV:   2     0.108992891268E+04   -0.37533E+04   -0.35195E+04  5504   0.923E+02
DAV:   3    -0.400391595737E+02   -0.11300E+04   -0.10572E+04  6592   0.314E+02
DAV:   4    -0.200459722178E+03   -0.16042E+03   -0.15552E+03  6048   0.119E+02
DAV:   5    -0.218267841765E+03   -0.17808E+02   -0.17626E+02  8648   0.396E+01    0.301E+01
DAV:   6    -0.185852266476E+03    0.32416E+02   -0.10608E+02  9216   0.743E+01    0.817E+00
DAV:   7    -0.187797574976E+03   -0.19453E+01   -0.23625E+01  6392   0.157E+01    0.752E+00
DAV:   8    -0.187611137070E+03    0.18644E+00   -0.24540E+00  7056   0.168E+01    0.340E+00
DAV:   9    -0.187655561972E+03   -0.44425E-01   -0.86693E-01  6704   0.924E+00    0.137E+00
DAV:  10    -0.187626185123E+03    0.29377E-01   -0.24310E-01  6848   0.554E+00    0.669E-01
DAV:  11    -0.187629226615E+03   -0.30415E-02   -0.11109E-01  7536   0.185E+00    0.373E-01
DAV:  12    -0.187631410386E+03   -0.21838E-02   -0.23968E-02  6640   0.732E-01    0.348E-01
DAV:  13    -0.187631069015E+03    0.34137E-03   -0.32222E-03  6208   0.131E+00    0.270E-01
DAV:  14    -0.187632619596E+03   -0.15506E-02   -0.78902E-03  7360   0.228E+00    0.200E-01
DAV:  15    -0.187631974543E+03    0.64505E-03   -0.41660E-03  7448   0.116E+00    0.141E-01
DAV:  16    -0.187631528410E+03    0.44613E-03   -0.45194E-04  5728   0.744E-01    0.860E-02
DAV:  17    -0.187631334359E+03    0.19405E-03   -0.52882E-04  5448   0.738E-01    0.203E-02
DAV:  18    -0.187631437763E+03   -0.10340E-03   -0.10069E-03  6056   0.166E-01    0.253E-02
DAV:  19    -0.187631451020E+03   -0.13256E-04   -0.11338E-04  3432   0.501E-02
   1 F= -.18763145E+03 E0= -.18763145E+03  d E =-.651252E-13
